<?xml version="1.0"?>
<VTKFile type="UnstructuredGrid"  version="0.1"  >
<UnstructuredGrid>
<Piece  NumberOfPoints="5101" NumberOfCells="10000">
<Points>
<DataArray  type="Float64"  NumberOfComponents="3"  format="ascii">0 0 0  0.2 0 0  0.4 0 0  0.6 0 0  0.8 0 0  1 0 0  1.2 0 0  1.4 0 0  1.6 0 0  1.8 0 0  2 0 0  2.2 0 0  2.4 0 0  2.6 0 0  2.8 0 0  3 0 0  3.2 0 0  3.4 0 0  3.6 0 0  3.8 0 0  4 0 0  4.2 0 0  4.4 0 0  4.6 0 0  4.8 0 0  5 0 0  5.2 0 0  5.4 0 0  5.6 0 0  5.8 0 0  6 0 0  6.2 0 0  6.4 0 0  6.6 0 0  6.8 0 0  7 0 0  7.2 0 0  7.4 0 0  7.6 0 0  7.8 0 0  8 0 0  8.199999999999999 0 0  8.4 0 0  8.6 0 0  8.800000000000001 0 0  9 0 0  9.199999999999999 0 0  9.4 0 0  9.6 0 0  9.800000000000001 0 0  10 0 0  0 0.2 0  0.2 0.2 0  0.4 0.2 0  0.6 0.2 0  0.8 0.2 0  1 0.2 0  1.2 0.2 0  1.4 0.2 0  1.6 0.2 0  1.8 0.2 0  2 0.2 0  2.2 0.2 0  2.4 0.2 0  2.6 0.2 0  2.8 0.2 0  3 0.2 0  3.2 0.2 0  3.4 0.2 0  3.6 0.2 0  3.8 0.2 0  4 0.2 0  4.2 0.2 0  4.4 0.2 0  4.6 0.2 0  4.8 0.2 0  5 0.2 0  5.2 0.2 0  5.4 0.2 0  5.6 0.2 0  5.8 0.2 0  6 0.2 0  6.2 0.2 0  6.4 0.2 0  6.6 0.2 0  6.8 0.2 0  7 0.2 0  7.2 0.2 0  7.4 0.2 0  7.6 0.2 0  7.8 0.2 0  8 0.2 0  8.199999999999999 0.2 0  8.4 0.2 0  8.6 0.2 0  8.800000000000001 0.2 0  9 0.2 0  9.199999999999999 0.2 0  9.4 0.2 0  9.6 0.2 0  9.800000000000001 0.2 0  10 0.2 0  0 0.4 0  0.2 0.4 0  0.4 0.4 0  0.6 0.4 0  0.8 0.4 0  1 0.4 0  1.2 0.4 0  1.4 0.4 0  1.6 0.4 0  1.8 0.4 0  2 0.4 0  2.2 0.4 0  2.4 0.4 0  2.6 0.4 0  2.8 0.4 0  3 0.4 0  3.2 0.4 0  3.4 0.4 0  3.6 0.4 0  3.8 0.4 0  4 0.4 0  4.2 0.4 0  4.4 0.4 0  4.6 0.4 0  4.8 0.4 0  5 0.4 0  5.2 0.4 0  5.4 0.4 0  5.6 0.4 0  5.8 0.4 0  6 0.4 0  6.2 0.4 0  6.4 0.4 0  6.6 0.4 0  6.8 0.4 0  7 0.4 0  7.2 0.4 0  7.4 0.4 0  7.6 0.4 0  7.8 0.4 0  8 0.4 0  8.199999999999999 0.4 0  8.4 0.4 0  8.6 0.4 0  8.800000000000001 0.4 0  9 0.4 0  9.199999999999999 0.4 0  9.4 0.4 0  9.6 0.4 0  9.800000000000001 0.4 0  10 0.4 0  0 0.6 0  0.2 0.6 0  0.4 0.6 0  0.6 0.6 0  0.8 0.6 0  1 0.6 0  1.2 0.6 0  1.4 0.6 0  1.6 0.6 0  1.8 0.6 0  2 0.6 0  2.2 0.6 0  2.4 0.6 0  2.6 0.6 0  2.8 0.6 0  3 0.6 0  3.2 0.6 0  3.4 0.6 0  3.6 0.6 0  3.8 0.6 0  4 0.6 0  4.2 0.6 0  4.4 0.6 0  4.6 0.6 0  4.8 0.6 0  5 0.6 0  5.2 0.6 0  5.4 0.6 0  5.6 0.6 0  5.8 0.6 0  6 0.6 0  6.2 0.6 0  6.4 0.6 0  6.6 0.6 0  6.8 0.6 0  7 0.6 0  7.2 0.6 0  7.4 0.6 0  7.6 0.6 0  7.8 0.6 0  8 0.6 0  8.199999999999999 0.6 0  8.4 0.6 0  8.6 0.6 0  8.800000000000001 0.6 0  9 0.6 0  9.199999999999999 0.6 0  9.4 0.6 0  9.6 0.6 0  9.800000000000001 0.6 0  10 0.6 0  0 0.8 0  0.2 0.8 0  0.4 0.8 0  0.6 0.8 0  0.8 0.8 0  1 0.8 0  1.2 0.8 0  1.4 0.8 0  1.6 0.8 0  1.8 0.8 0  2 0.8 0  2.2 0.8 0  2.4 0.8 0  2.6 0.8 0  2.8 0.8 0  3 0.8 0  3.2 0.8 0  3.4 0.8 0  3.6 0.8 0  3.8 0.8 0  4 0.8 0  4.2 0.8 0  4.4 0.8 0  4.6 0.8 0  4.8 0.8 0  5 0.8 0  5.2 0.8 0  5.4 0.8 0  5.6 0.8 0  5.8 0.8 0  6 0.8 0  6.2 0.8 0  6.4 0.8 0  6.6 0.8 0  6.8 0.8 0  7 0.8 0  7.2 0.8 0  7.4 0.8 0  7.6 0.8 0  7.8 0.8 0  8 0.8 0  8.199999999999999 0.8 0  8.4 0.8 0  8.6 0.8 0  8.800000000000001 0.8 0  9 0.8 0  9.199999999999999 0.8 0  9.4 0.8 0  9.6 0.8 0  9.800000000000001 0.8 0  10 0.8 0  0 1 0  0.2 1 0  0.4 1 0  0.6 1 0  0.8 1 0  1 1 0  1.2 1 0  1.4 1 0  1.6 1 0  1.8 1 0  2 1 0  2.2 1 0  2.4 1 0  2.6 1 0  2.8 1 0  3 1 0  3.2 1 0  3.4 1 0  3.6 1 0  3.8 1 0  4 1 0  4.2 1 0  4.4 1 0  4.6 1 0  4.8 1 0  5 1 0  5.2 1 0  5.4 1 0  5.6 1 0  5.8 1 0  6 1 0  6.2 1 0  6.4 1 0  6.6 1 0  6.8 1 0  7 1 0  7.2 1 0  7.4 1 0  7.6 1 0  7.8 1 0  8 1 0  8.199999999999999 1 0  8.4 1 0  8.6 1 0  8.800000000000001 1 0  9 1 0  9.199999999999999 1 0  9.4 1 0  9.6 1 0  9.800000000000001 1 0  10 1 0  0 1.2 0  0.2 1.2 0  0.4 1.2 0  0.6 1.2 0  0.8 1.2 0  1 1.2 0  1.2 1.2 0  1.4 1.2 0  1.6 1.2 0  1.8 1.2 0  2 1.2 0  2.2 1.2 0  2.4 1.2 0  2.6 1.2 0  2.8 1.2 0  3 1.2 0  3.2 1.2 0  3.4 1.2 0  3.6 1.2 0  3.8 1.2 0  4 1.2 0  4.2 1.2 0  4.4 1.2 0  4.6 1.2 0  4.8 1.2 0  5 1.2 0  5.2 1.2 0  5.4 1.2 0  5.6 1.2 0  5.8 1.2 0  6 1.2 0  6.2 1.2 0  6.4 1.2 0  6.6 1.2 0  6.8 1.2 0  7 1.2 0  7.2 1.2 0  7.4 1.2 0  7.6 1.2 0  7.8 1.2 0  8 1.2 0  8.199999999999999 1.2 0  8.4 1.2 0  8.6 1.2 0  8.800000000000001 1.2 0  9 1.2 0  9.199999999999999 1.2 0  9.4 1.2 0  9.6 1.2 0  9.800000000000001 1.2 0  10 1.2 0  0 1.4 0  0.2 1.4 0  0.4 1.4 0  0.6 1.4 0  0.8 1.4 0  1 1.4 0  1.2 1.4 0  1.4 1.4 0  1.6 1.4 0  1.8 1.4 0  2 1.4 0  2.2 1.4 0  2.4 1.4 0  2.6 1.4 0  2.8 1.4 0  3 1.4 0  3.2 1.4 0  3.4 1.4 0  3.6 1.4 0  3.8 1.4 0  4 1.4 0  4.2 1.4 0  4.4 1.4 0  4.6 1.4 0  4.8 1.4 0  5 1.4 0  5.2 1.4 0  5.4 1.4 0  5.6 1.4 0  5.8 1.4 0  6 1.4 0  6.2 1.4 0  6.4 1.4 0  6.6 1.4 0  6.8 1.4 0  7 1.4 0  7.2 1.4 0  7.4 1.4 0  7.6 1.4 0  7.8 1.4 0  8 1.4 0  8.199999999999999 1.4 0  8.4 1.4 0  8.6 1.4 0  8.800000000000001 1.4 0  9 1.4 0  9.199999999999999 1.4 0  9.4 1.4 0  9.6 1.4 0  9.800000000000001 1.4 0  10 1.4 0  0 1.6 0  0.2 1.6 0  0.4 1.6 0  0.6 1.6 0  0.8 1.6 0  1 1.6 0  1.2 1.6 0  1.4 1.6 0  1.6 1.6 0  1.8 1.6 0  2 1.6 0  2.2 1.6 0  2.4 1.6 0  2.6 1.6 0  2.8 1.6 0  3 1.6 0  3.2 1.6 0  3.4 1.6 0  3.6 1.6 0  3.8 1.6 0  4 1.6 0  4.2 1.6 0  4.4 1.6 0  4.6 1.6 0  4.8 1.6 0  5 1.6 0  5.2 1.6 0  5.4 1.6 0  5.6 1.6 0  5.8 1.6 0  6 1.6 0  6.2 1.6 0  6.4 1.6 0  6.6 1.6 0  6.8 1.6 0  7 1.6 0  7.2 1.6 0  7.4 1.6 0  7.6 1.6 0  7.8 1.6 0  8 1.6 0  8.199999999999999 1.6 0  8.4 1.6 0  8.6 1.6 0  8.800000000000001 1.6 0  9 1.6 0  9.199999999999999 1.6 0  9.4 1.6 0  9.6 1.6 0  9.800000000000001 1.6 0  10 1.6 0  0 1.8 0  0.2 1.8 0  0.4 1.8 0  0.6 1.8 0  0.8 1.8 0  1 1.8 0  1.2 1.8 0  1.4 1.8 0  1.6 1.8 0  1.8 1.8 0  2 1.8 0  2.2 1.8 0  2.4 1.8 0  2.6 1.8 0  2.8 1.8 0  3 1.8 0  3.2 1.8 0  3.4 1.8 0  3.6 1.8 0  3.8 1.8 0  4 1.8 0  4.2 1.8 0  4.4 1.8 0  4.6 1.8 0  4.8 1.8 0  5 1.8 0  5.2 1.8 0  5.4 1.8 0  5.6 1.8 0  5.8 1.8 0  6 1.8 0  6.2 1.8 0  6.4 1.8 0  6.6 1.8 0  6.8 1.8 0  7 1.8 0  7.2 1.8 0  7.4 1.8 0  7.6 1.8 0  7.8 1.8 0  8 1.8 0  8.199999999999999 1.8 0  8.4 1.8 0  8.6 1.8 0  8.800000000000001 1.8 0  9 1.8 0  9.199999999999999 1.8 0  9.4 1.8 0  9.6 1.8 0  9.800000000000001 1.8 0  10 1.8 0  0 2 0  0.2 2 0  0.4 2 0  0.6 2 0  0.8 2 0  1 2 0  1.2 2 0  1.4 2 0  1.6 2 0  1.8 2 0  2 2 0  2.2 2 0  2.4 2 0  2.6 2 0  2.8 2 0  3 2 0  3.2 2 0  3.4 2 0  3.6 2 0  3.8 2 0  4 2 0  4.2 2 0  4.4 2 0  4.6 2 0  4.8 2 0  5 2 0  5.2 2 0  5.4 2 0  5.6 2 0  5.8 2 0  6 2 0  6.2 2 0  6.4 2 0  6.6 2 0  6.8 2 0  7 2 0  7.2 2 0  7.4 2 0  7.6 2 0  7.8 2 0  8 2 0  8.199999999999999 2 0  8.4 2 0  8.6 2 0  8.800000000000001 2 0  9 2 0  9.199999999999999 2 0  9.4 2 0  9.6 2 0  9.800000000000001 2 0  10 2 0  0 2.2 0  0.2 2.2 0  0.4 2.2 0  0.6 2.2 0  0.8 2.2 0  1 2.2 0  1.2 2.2 0  1.4 2.2 0  1.6 2.2 0  1.8 2.2 0  2 2.2 0  2.2 2.2 0  2.4 2.2 0  2.6 2.2 0  2.8 2.2 0  3 2.2 0  3.2 2.2 0  3.4 2.2 0  3.6 2.2 0  3.8 2.2 0  4 2.2 0  4.2 2.2 0  4.4 2.2 0  4.6 2.2 0  4.8 2.2 0  5 2.2 0  5.2 2.2 0  5.4 2.2 0  5.6 2.2 0  5.8 2.2 0  6 2.2 0  6.2 2.2 0  6.4 2.2 0  6.6 2.2 0  6.8 2.2 0  7 2.2 0  7.2 2.2 0  7.4 2.2 0  7.6 2.2 0  7.8 2.2 0  8 2.2 0  8.199999999999999 2.2 0  8.4 2.2 0  8.6 2.2 0  8.800000000000001 2.2 0  9 2.2 0  9.199999999999999 2.2 0  9.4 2.2 0  9.6 2.2 0  9.800000000000001 2.2 0  10 2.2 0  0 2.4 0  0.2 2.4 0  0.4 2.4 0  0.6 2.4 0  0.8 2.4 0  1 2.4 0  1.2 2.4 0  1.4 2.4 0  1.6 2.4 0  1.8 2.4 0  2 2.4 0  2.2 2.4 0  2.4 2.4 0  2.6 2.4 0  2.8 2.4 0  3 2.4 0  3.2 2.4 0  3.4 2.4 0  3.6 2.4 0  3.8 2.4 0  4 2.4 0  4.2 2.4 0  4.4 2.4 0  4.6 2.4 0  4.8 2.4 0  5 2.4 0  5.2 2.4 0  5.4 2.4 0  5.6 2.4 0  5.8 2.4 0  6 2.4 0  6.2 2.4 0  6.4 2.4 0  6.6 2.4 0  6.8 2.4 0  7 2.4 0  7.2 2.4 0  7.4 2.4 0  7.6 2.4 0  7.8 2.4 0  8 2.4 0  8.199999999999999 2.4 0  8.4 2.4 0  8.6 2.4 0  8.800000000000001 2.4 0  9 2.4 0  9.199999999999999 2.4 0  9.4 2.4 0  9.6 2.4 0  9.800000000000001 2.4 0  10 2.4 0  0 2.6 0  0.2 2.6 0  0.4 2.6 0  0.6 2.6 0  0.8 2.6 0  1 2.6 0  1.2 2.6 0  1.4 2.6 0  1.6 2.6 0  1.8 2.6 0  2 2.6 0  2.2 2.6 0  2.4 2.6 0  2.6 2.6 0  2.8 2.6 0  3 2.6 0  3.2 2.6 0  3.4 2.6 0  3.6 2.6 0  3.8 2.6 0  4 2.6 0  4.2 2.6 0  4.4 2.6 0  4.6 2.6 0  4.8 2.6 0  5 2.6 0  5.2 2.6 0  5.4 2.6 0  5.6 2.6 0  5.8 2.6 0  6 2.6 0  6.2 2.6 0  6.4 2.6 0  6.6 2.6 0  6.8 2.6 0  7 2.6 0  7.2 2.6 0  7.4 2.6 0  7.6 2.6 0  7.8 2.6 0  8 2.6 0  8.199999999999999 2.6 0  8.4 2.6 0  8.6 2.6 0  8.800000000000001 2.6 0  9 2.6 0  9.199999999999999 2.6 0  9.4 2.6 0  9.6 2.6 0  9.800000000000001 2.6 0  10 2.6 0  0 2.8 0  0.2 2.8 0  0.4 2.8 0  0.6 2.8 0  0.8 2.8 0  1 2.8 0  1.2 2.8 0  1.4 2.8 0  1.6 2.8 0  1.8 2.8 0  2 2.8 0  2.2 2.8 0  2.4 2.8 0  2.6 2.8 0  2.8 2.8 0  3 2.8 0  3.2 2.8 0  3.4 2.8 0  3.6 2.8 0  3.8 2.8 0  4 2.8 0  4.2 2.8 0  4.4 2.8 0  4.6 2.8 0  4.8 2.8 0  5 2.8 0  5.2 2.8 0  5.4 2.8 0  5.6 2.8 0  5.8 2.8 0  6 2.8 0  6.2 2.8 0  6.4 2.8 0  6.6 2.8 0  6.8 2.8 0  7 2.8 0  7.2 2.8 0  7.4 2.8 0  7.6 2.8 0  7.8 2.8 0  8 2.8 0  8.199999999999999 2.8 0  8.4 2.8 0  8.6 2.8 0  8.800000000000001 2.8 0  9 2.8 0  9.199999999999999 2.8 0  9.4 2.8 0  9.6 2.8 0  9.800000000000001 2.8 0  10 2.8 0  0 3 0  0.2 3 0  0.4 3 0  0.6 3 0  0.8 3 0  1 3 0  1.2 3 0  1.4 3 0  1.6 3 0  1.8 3 0  2 3 0  2.2 3 0  2.4 3 0  2.6 3 0  2.8 3 0  3 3 0  3.2 3 0  3.4 3 0  3.6 3 0  3.8 3 0  4 3 0  4.2 3 0  4.4 3 0  4.6 3 0  4.8 3 0  5 3 0  5.2 3 0  5.4 3 0  5.6 3 0  5.8 3 0  6 3 0  6.2 3 0  6.4 3 0  6.6 3 0  6.8 3 0  7 3 0  7.2 3 0  7.4 3 0  7.6 3 0  7.8 3 0  8 3 0  8.199999999999999 3 0  8.4 3 0  8.6 3 0  8.800000000000001 3 0  9 3 0  9.199999999999999 3 0  9.4 3 0  9.6 3 0  9.800000000000001 3 0  10 3 0  0 3.2 0  0.2 3.2 0  0.4 3.2 0  0.6 3.2 0  0.8 3.2 0  1 3.2 0  1.2 3.2 0  1.4 3.2 0  1.6 3.2 0  1.8 3.2 0  2 3.2 0  2.2 3.2 0  2.4 3.2 0  2.6 3.2 0  2.8 3.2 0  3 3.2 0  3.2 3.2 0  3.4 3.2 0  3.6 3.2 0  3.8 3.2 0  4 3.2 0  4.2 3.2 0  4.4 3.2 0  4.6 3.2 0  4.8 3.2 0  5 3.2 0  5.2 3.2 0  5.4 3.2 0  5.6 3.2 0  5.8 3.2 0  6 3.2 0  6.2 3.2 0  6.4 3.2 0  6.6 3.2 0  6.8 3.2 0  7 3.2 0  7.2 3.2 0  7.4 3.2 0  7.6 3.2 0  7.8 3.2 0  8 3.2 0  8.199999999999999 3.2 0  8.4 3.2 0  8.6 3.2 0  8.800000000000001 3.2 0  9 3.2 0  9.199999999999999 3.2 0  9.4 3.2 0  9.6 3.2 0  9.800000000000001 3.2 0  10 3.2 0  0 3.4 0  0.2 3.4 0  0.4 3.4 0  0.6 3.4 0  0.8 3.4 0  1 
[...]
<PointData  Scalars="f_5"> 
<DataArray  type="Float64"  Name="f_5"  format="ascii">-1.8421146547582193e-06  -3.3959858715442092e-06  -3.6323653377956715e-06  -3.9606330690132140e-06  -4.3318474642416449e-06  -4.7494480397336950e-06  -5.2161547166135057e-06  -5.7335805980643717e-06  -6.3017859263331062e-06  -6.9187862881994144e-06  -7.5800424501885435e-06  -8.2779728092426209e-06  -9.0015435333748726e-06  -9.7360038933099701e-06  -1.0462842094339235e-05  -1.1160036589722658e-05  -1.1802665868264684e-05  -1.2363913409697949e-05  -1.2816463230342687e-05  -1.3134227626116823e-05  -1.3294288580377827e-05  -1.3278877711180239e-05  -1.3077178777631920e-05  -1.2686723614629798e-05  -1.2114175347602797e-05  -1.1375353588939597e-05  -1.0494448244572683e-05  -9.5024766867897468e-06  -8.4351434001327324e-06  -7.3303415445426261e-06  -6.2255769350135907e-06  -5.1555902925151046e-06  -4.1504069828287322e-06  -3.2339670206826146e-06  -2.4233987589583550e-06  -1.7289144331107532e-06  -1.1542379163214166e-06  -6.9743211477487443e-07  -3.5197670246014086e-07  -1.0795275800370811e-07  4.6787180220095157e-08  1.2555442268129217e-07  1.4192271844367575e-07  1.0901792232015647e-07  3.9002105561687748e-08  -5.7262085395877541e-08  -1.7039186476438161e-07  -2.9253969384410507e-07  -4.1735698776790535e-07  -5.9300261709905642e-07  -6.7764520526176119e-07  -1.4803806420940011e-05  -2.0771756012418990e-05  -2.3742257171145460e-05  -2.7251069763255208e-05  -3.1243992696016025e-05  -3.5763773128643899e-05  -4.0850076543319138e-05  -4.6536740228845663e-05  -5.2848766626764782e-05  -5.9798862889875017e-05  -6.7383621399394399e-05  -7.5579507145753794e-05  -8.4338899727589759e-05  -9.3586523595446427e-05  -1.0321667894435021e-04  -1.1309174199870211e-04  -1.2304241888222347e-04  -1.3287019284680623e-04  -1.4235228497494487e-04  -1.5124924708501375e-04  -1.5931503022017108e-04  -1.6630904854178172e-04  -1.7200943055980784e-04  -1.7622637439954362e-04  -1.7881436085033013e-04  -1.7968197532307361e-04  -1.7879826976948871e-04  -1.7619494481475458e-04  -1.7196410109602918e-04  -1.6625182008385691e-04  -1.5924830155379066e-04  -1.5117563087093319e-04  -1.4227442544275672e-04  -1.3279060369088901e-04  -1.2296335457428879e-04  -1.1301510943536228e-04  -1.0314399030043883e-04  -9.3518886396591117e-05  -8.4277036973424491e-05  -7.5523798859542090e-05  -6.7334158985852874e-05  -5.9755508720815547e-05  -5.2811212883840499e-05  -4.6504562818618242e-05  -4.0822781575824320e-05  -3.5740834848019037e-05  -3.1224882801413268e-05  -2.7235278763425289e-05  -2.3729308861479967e-05  -2.0761318597212848e-05  -1.4805201289413482e-05  -3.3727792722863661e-05  -4.3160643092493910e-05  -5.0224504340415505e-05  -5.8478172582351972e-05  -6.7943707044560361e-05  -7.8740292468739692e-05  -9.0981589285785589e-05  -1.0476914060713652e-04  -1.2018455590878935e-04  -1.3728027351835265e-04  -1.5606908505623113e-04  -1.7651280304198003e-04  -1.9851069353336742e-04  -2.2188856340053516e-04  -2.4638965719594373e-04  -2.7166873690779339e-04  -2.9729083107321016e-04  -3.2273608281181677e-04  -3.4741183993494348e-04  -3.7067257832662872e-04  -3.9184743958870931e-04  -4.1027416280263733e-04  -4.2533713109565454e-04  -4.3650632255262775e-04  -4.4337335761748890e-04  -4.4568074696743832e-04  -4.4334095661224669e-04  -4.3644298958177941e-04  -4.2524567443753646e-04  -4.1015848882691567e-04  -3.9171223335937377e-04  -3.7052294714050960e-04  -3.4725296152560272e-04  -3.2257289379025223e-04  -2.9712778050702246e-04  -2.7150961751338512e-04  -2.4623751496653719e-04  -2.2174567739074067e-04  -1.9837861178795309e-04  -1.7639241825742274e-04  -1.5596073388242710e-04  -1.3718384556197334e-04  -1.2009960160227696e-04  -1.0469497043044760e-04  -9.0917359872543695e-05  -7.8685077619285697e-05  -6.7896553511175264e-05  -5.8438141714751986e-05  -5.0190701455486719e-05  -4.3132331288521497e-05  -3.3730062739028142e-05  -5.8423131512090151e-05  -7.2627992220906668e-05  -8.5301401638761111e-05  -1.0011040005668648e-04  -1.1720015059899245e-04  -1.3681662312288182e-04  -1.5920043099979772e-04  -1.8457468426781766e-04  -2.1312990531926113e-04  -2.4500569132199489e-04  -2.8026932467209507e-04  -3.1889193663819666e-04  -3.6072334927289231e-04  -4.0546733417689298e-04  -4.5265967911938470e-04  -5.0165205093992101e-04  -5.5160505174024462e-04  -6.0149392209223962e-04  -6.5012988420821798e-04  -6.9619901493973087e-04  -7.3831876407457039e-04  -7.7510990705960761e-04  -8.0527913961501757e-04  -8.2770514076471952e-04  -8.4151928760865888e-04  -8.4617178550279784e-04  -8.4147506317171629e-04  -8.2761883210738139e-04  -8.0515482450340509e-04  -7.7495322643676072e-04  -7.3813643102271700e-04  -6.9599827441433910e-04  -6.4991799023837032e-04  -6.0127768718664526e-04  -5.5139050432281595e-04  -5.0144421576465135e-04  -4.5246247707712660e-04  -4.0528358441555484e-04  -3.6055484903662439e-04  -3.1873959217656198e-04  -2.8013330860881446e-04  -2.4488560636721916e-04  -2.1302493967935982e-04  -1.8448374945368036e-04  -1.5912227729335471e-04  -1.3674993144179178e-04  -1.1714360188062517e-04  -1.0006272470375026e-04  -8.5261412333685326e-05  -7.2594716067367338e-05  -5.8426155925724853e-05  -9.0101425880158081e-05  -1.1064706702468046e-04  -1.3083725413939531e-04  -1.5449970121589435e-04  -1.8197045979494248e-04  -2.1369682030173207e-04  -2.5012675754103775e-04  -2.9168923245555305e-04  -3.3876870195718902e-04  -3.9167315787194164e-04  -4.5059570979127088e-04  -5.1557043437008864e-04  -5.8642418592139817e-04  -6.6272728364113759e-04  -7.4374737966549143e-04  -8.2841220368158760e-04  -9.1528800940173373e-04  -1.0025810620403115e-03  -1.0881690066638836e-03  -1.1696670945997530e-03  -1.2445308457932091e-03  -1.3101919352675399e-03  -1.3642184798353040e-03  -1.4044854555356908e-03  -1.4293369499551673e-03  -1.4377205535390971e-03  -1.4292761905242174e-03  -1.4043670861523013e-03  -1.3640484786631634e-03  -1.3099785204194580e-03  -1.2442837116691861e-03  -1.1693965852549509e-03  -1.0878853338630683e-03  -1.0022936524512096e-03  -9.1500503161059997e-04  -8.2814029052428420e-04  -7.4349153200799797e-04  -6.6249092218575946e-04  -5.8620930854438402e-04  -5.1537783622405660e-04  -4.5042522909024570e-04  -3.9152391897350110e-04  -3.3863933667701548e-04  -2.9157806891849783e-04  -2.5003197249210058e-04  -2.1361655546856385e-04  -1.8190290578294627e-04  -1.5444315388176631e-04  -1.3079014894323832e-04  -1.1060812966928163e-04  -9.0105376570064673e-05  -1.3004707833542831e-04  -1.5886220386894244e-04  -1.8893382388809448e-04  -2.2432526283906439e-04  -2.6565947328077943e-04  -3.1369295471320760e-04  -3.6920022559213723e-04  -4.3294451983640455e-04  -5.0563818654912466e-04  -5.8789128251313149e-04  -6.8014772906470290e-04  -7.8260951409266858e-04  -8.9515106722676914e-04  -1.0172281496816300e-03  -1.1477882980373663e-03  -1.2851927940518509e-03  -1.4271628340042858e-03  -1.5707643450562953e-03  -1.7124458770175590e-03  -1.8481413155763192e-03  -1.9734432213045178e-03  -2.0838434237277345e-03  -2.1750260468918368e-03  -2.2431863969671799e-03  -2.2853398537232019e-03  -2.2995809142797195e-03  -2.2852558203370022e-03  -2.2430230144283329e-03  -2.1747921683559017e-03  -2.0835511325753018e-03  -1.9731066289963815e-03  -1.8477752846436724e-03  -1.7120648446489592e-03  -1.5703813775560340e-03  -1.4267889816816357e-03  -1.2848367566664473e-03  -1.1474563648685269e-03  -1.0169243509923302e-03  -8.9487746476124661e-04  -7.8236656294528311e-04  -6.7993465615634734e-04  -5.8770644289220892e-04  -5.0547937411067330e-04  -4.3280922173962865e-04  -3.6908581889188183e-04  -3.1359684962592828e-04  -2.6557921066500898e-04  -2.2425857461994114e-04  -1.8887866513034868e-04  -1.5881692057610663e-04  -1.3005214847196250e-04  -1.7964900808390726e-04  -2.1907112610158275e-04  -2.6191481554613955e-04  -3.1258335401457461e-04  -3.7211995129988226e-04  -4.4174331168328023e-04  -5.2272737786234651e-04  -6.1636082345866089e-04  -7.2388947812341675e-04  -8.4643852025380925e-04  -9.8491227230466699e-04  -1.1398709885675122e-03  -1.3113865831737275e-03  -1.4988829675776851e-03  -1.7009715480918487e-03  -1.9152981769984020e-03  -2.1384237248771956e-03  -2.3657651907942607e-03  -2.5916261421612516e-03  -2.8093422923413701e-03  -3.0115585030867057e-03  -3.1906368596372023e-03  -3.3391730514649599e-03  -3.4505738383281072e-03  -3.5196276866977256e-03  -3.5429901936044231e-03  -3.5195106017096500e-03  -3.4503467180372121e-03  -3.3388491538289466e-03  -3.1902341313055408e-03  -3.0110976619164348e-03  -2.8088448346405537e-03  -2.5911125633222326e-03  -2.3652536194439847e-03  -2.1379290607554092e-03  -1.9148317224604700e-03  -1.7005410521283152e-03  -1.4984929656583442e-03  -1.3110389115422103e-03  -1.1395653678641204e-03  -9.8464688186852855e-04  -8.4621051261077730e-04  -7.2369540767310773e-04  -6.1619698185741369e-04  -5.2259004078740207e-04  -4.4162890846962506e-04  -3.7202517173160626e-04  -3.1250520668853470e-04  -2.6185065100000016e-04  -2.1901881810860145e-04  -1.7965540878880353e-04  -2.4037116559030868e-04  -2.9319157976500097e-04  -3.5228966577262034e-04  -4.2255051157370099e-04  -5.0561928874561489e-04  -6.0338961954057386e-04  -7.1788056362214598e-04  -8.5118472576293396e-04  -1.0053896103662905e-03  -1.1824660522625138e-03  -1.3841184223292167e-03  -1.6115931858665142e-03  -1.8654460000605371e-03  -2.1452733453088324e-03  -2.4494229661552844e-03  -2.7747079668273863e-03  -3.1161612962952792e-03  -3.4668785052145643e-03  -3.8180037716926091e-03  -4.1589130466482818e-03  -4.4776345451029492e-03  -4.7615181697432231e-03  -4.9981230023511663e-03  -5.1762422844710545e-03  -5.2869401595818872e-03  -5.3244483230965997e-03  -5.2867756688934646e-03  -5.1759240536148696e-03  -4.9976711332763149e-03  -4.7609596142887262e-03  -4.4770000024574015e-03  -4.1582338209945899e-03  -3.8173090690151270e-03  -3.4661934733491279e-03  -3.1155059120973948e-03  -2.7740967058392926e-03  -2.4488650840381312e-03  -2.1447735600582576e-03  -1.8650053749638214e-03  -1.6112100538587457e-03  -1.3837892433239546e-03  -1.1821861426918865e-03  -1.0051537216641325e-03  -8.5098747404236817e-04  -7.1771672756761322e-04  -6.0325433010024218e-04  -5.0550813529221753e-04  -4.2245958710243170e-04  -3.5221557031049437e-04  -2.9313160818673700e-04  -2.4037911981061709e-04  -3.1370884852659534e-04  -3.8320912415207119e-04  -4.6269255822116375e-04  -5.5771455801629252e-04  -6.7076509045074155e-04  -8.0470265429956290e-04  -9.6263362450290497e-04  -1.1478518593160093e-03  -1.3637384414614255e-03  -1.6136102987284364e-03  -1.9005066019449528e-03  -2.2269035448511392e-03  -2.5943525688667136e-03  -3.0030454060563905e-03  -3.4513224434875567e-03  -3.9351592416070891e-03  -4.4476886795777829e-03  -4.9788401801806369e-03  -5.5151970697564666e-03  -6.0401799133566244e-03  -6.5346478491910484e-03  -6.9779636521369566e-03  -7.3494903294768392e-03  -7.6303877827165224e-03  -7.8054808060376221e-03  -7.8649063292267288e-03  -7.8052475569549912e-03  -7.6299379232478278e-03  -7.3488547628042305e-03  -6.9771833505731812e-03  -6.5337687556546661e-03  -6.0392479331062903e-03  -5.5142539526512133e-03  -4.9779207448547363e-03  -4.4468194646607190e-03  -3.9343583894347629e-03  -3.4506004720097085e-03  -3.0024064949755211e-03  -2.5937960376567846e-03  -2.2264252895338645e-03  -1.9001003504770144e-03  -1.6132686220759237e-03  -1.3634535118362647e-03  -1.1476159795550760e-03  -9.6243956789299602e-04  -8.0454385784840539e-04  -6.7063574151963762e-04  -5.5760960793738818e-04  -4.6260768956337897e-04  -3.8314093363431663e-04  -3.1371858147461124e-04  -4.0112894958968217e-04  -4.9110298072098759e-04  -5.9579172943836814e-04  -7.2166581141407679e-04  -8.7237806869256437e-04  -1.0521391880146962e-03  -1.2656097735207249e-03  -1.5178400233872972e-03  -1.8141529606510844e-03  -2.1599518973481149e-03  -2.5604310899109725e-03  -3.0201688516438441e-03  -3.5425866813233744e-03  -4.1292684811928514e-03  -4.7791531154476683e-03  -5.4876433605395986e-03  -6.2457149423792487e-03  -7.0391575061709418e-03  -7.8481261131776846e-03  -8.6472115129960885e-03  -9.4062287988013644e-03  -1.0091856007807773e-02  -1.0670116275396168e-02  -1.1109502129287711e-02  -1.1384332566495414e-02  -1.1477782261519921e-02  -1.1383998317699061e-02  -1.1108859817706623e-02  -1.0669214150839051e-02  -1.0090757200639257e-02  -9.4050027992231382e-03  -8.6459261041379205e-03  -7.8468411000406704e-03  -7.0379208791557287e-03  -6.2445614433516107e-03  -5.4865949662206157e-03  -4.7782207651645217e-03  -4.1284544007984432e-03  -3.5418867998712692e-03  -3.0195749878159941e-03  -2.5599327466531000e-03  -2.1595376216769551e-03  -1.8138112986292166e-03  -1.5175601362530070e-03  -1.2653817915467306e-03  -1.0519543743906349e-03  -8.7222885439925432e-04  -7.2154574869383390e-04  -5.9569539911005949e-04  -4.9102615312535873e-04  -4.0114067521058734e-04  -5.0399303228218961e-04  -6.1874771113457896e-04  -7.5416501567616783e-04  -9.1794158209423102e-04  -1.1153009974370000e-03  -1.3523125234188862e-03  -1.6358144931663881e-03  -1.9733722237990862e-03  -2.3731604420023557e-03  -2.8437389041972984e-03  -3.3936842677295977e-03  -4.0310376980585583e-03  -4.7625291809662851e-03  -5.5925501060861312e-03  -6.5218705906817404e-03  -7.5461427377129355e-03  -8.6542994329804092e-03  -9.8270490425554167e-03  -1.1035767968840933e-02  -1.2242178905212290e-02  -1.3399229923274525e-02  -1.4453506723704723e-02  -1.5349278319783537e-02  -1.6033900289890008e-02  -1.6463857382284446e-02  -1.6610368404996387e-02  -1.6463372617684373e-02  -1.6032972762760538e-02  -1.5347984689358597e-02  -1.4451945719616565e-02  -1.3397507844801263e-02  -1.2240396498272700e-02  -1.1034010926201430e-02  -9.8253829400391200e-03  -8.6527686919069223e-03  -7.5447725038622765e-03  -6.5206702499086451e-03  -5.5915173450302004e-03  -4.7616538427818983e-03  -4.0303050250872366e-03  -3.3930773877345541e-03  -2.8432405852935557e-03  -2.3727542274810526e-03  -1.9730430865997767e-03  -1.6355491446027016e-03  -1.3520994897069834e-03  -1.1151305518827279e-03  -9.1780559655198939e-04  -7.5405677503269136e-04  -6.1866202853420383e-04  -5.0400693546032898e-04  -6.2346335741843902e-04  -7.6779001864935611e-04  -9.4013940181301775e-04  -1.1498190611939788e-03  -1.4041344291978702e-03  -1.7116602909088643e-03  -2.0822262456009944e-03  -2.5269260914897226e-03  -3.0580331582741819e-03  -3.6887736745585230e-03  -4.4328975164726319e-03  -5.3039738267103339e-03  -6.3143321691691125e-03  -7.4735746633566537e-03  -8.7866106167726003e-03  -1.0251224967337422e-02  -1.1855298110858718e-02  -1.3573954607695780e-02  -1.5367123042067537e-02  -1.7178200341566224e-02  -1.8934651558385876e-02  -2.0551324222215957e-02  -2.1936898248704050e-02  -2.3003185481045071e-02  -2.3676056433159398e-02  -2.3905921026623474e-02  -2.3675343613579890e-02  -2.3001828694036674e-02  -2.1935021719907129e-02  -2.0549084916634298e-02  -1.8932214018476445e-02  -1.7175715161515410e-02  -1.5364712683446259e-02  -1.3571707317385174e-02  -1.1853268508914321e-02  -1.0249438895558963e-02  -8.7850718846127166e-03  -7.4722719277857431e-03  -6.3132449138920939e-03  -5.3030770137380513e-03  -4.4321648848504088e-03  -3.6881798726767327e-03  -3.0575549721581926e-03  -2.5265430279101221e-03  -2.0819206881461526e-03  -1.7114173957766348e-03  -1.4039418792300940e-03  -1.1496667572269703e-03  -9.4001914115259357e-04  -7.6769553355608830e-04  -6.2347957205688312e-04  -7.6039370930877745e-04  -9.3950225322222893e-04  -1.1555952863312091e-03  -1.4200553870001857e-03  -1.7428942323154120e-03  -2.1359978996845865e-03  -2.6132220878991165e-03  -3.1905084150373967e-03  -3.8858946759370841e-03  -4.7193502068729049e-03  -5.7123431041003394e-03  -6.8870189247159834e-03  -8.2648454677786646e-03  -9.8645645269730305e-03  -1.1699305030181632e-02  -1.3772776748059566e-02  -1.6074610658569258e-02  -1.8575171401940455e-02  -2.1220550385269960e-02  -2.3928915366505207e-02  -2.6589813904990958e-02  -2.9068162716515553e-02  -3.1214194864426902e-02  -3.2879363639252646e-02  -3.3936234434264349e-02  -3.4298371437963736e-02  -3.3935169385614056e-02  -3.2877349276681282e-02  -3.1211437071984156e-02  -2.9064915622274572e-02  -2.6586335315821344e-02  -2.3925431287684311e-02  -2.1217234509242726e-02  -1.8572139371346684e-02  -1.6071925118890152e-02  -1.3770458164130304e-02  -1.1697344066739418e-02  -9.8629333269111118e-03  -8.2635065959390294e-03  -6.8859317412771712e-03  -5.7114678719597210e-03  -4.7186504421196729e-03  -3.8853382584096621e-03  -3.1900678934859098e-03  -2.6128745066702611e-03  -2.1357243739090126e-03  -1.7426794186754066e-03  -1.4198869388586301e-03  -1.1554633426247580e-03  -9.3939936224780526e-04  -7.6041229303271140e-04  -9.1520907338868808e-04  -1.1346172691018533e-03  -1.4017403818479400e-03  -1.7305793144761071e-03  -2.1345933449801228e-03  -2.6299551787031532e-03  -3.2358259332090304e-03  -3.9746645170353964e-03  -4.8724363266366769e-03  -5.9586293334488605e-03  -7.2659440137922207e-03  -8.8294714784996342e-03  -1.0685115267667128e-02  -1.2866956954750425e-02  -1.5403236151816048e-02  -1.8310651758723817e-02  -2.1586855616222953e-02  -2.5201382703648394e-02  -2.9085918080154056e-02  -3.3125747194451299e-02  -3.7155309647046289e-02  -4.0961531123122966e-02  -4.4298306948551115e-02  -4.6913396090201592e-02  -4.8584914658513743e-02  -4.9159773481282816e-02  -4.8583293272896094e-02  -4.6910353627669245e-02  -4.4294193524120652e-02  -4.0956766483969904e-02  -3.7150302566671504e-02  -3.3120837112136224e-02  -2.9081347454134758e-02  -2.5197296048394890e-02  -2.1583315187317039e-02  -1.8307659816974950e-02  -1.5400756764241668e-02  -1.2864933756856904e-02  -1.0683484195842139e-02  -8.8281689289217129e-03  -7.2649114538072624e-03  -5.9578154455076143e-03  -4.8717975878599384e-03  -3.9741648797423741e-03  -3.2354360548229101e-03  -2.6296514811366416e-03  -2.1343570651263587e-03  -1.7303956297837363e-03  -1.4015976475759452e-03  -1.1345067842858853e-03  -9.1522998041540027e-04  -1.0877807792535660e-03  -1.3531530202486413e-03  -1.6788635586804661e-03  -2.0821465678951445e-03  -2.5807608071759347e-03  -3.1963082156621346e-03  -3.9547861202114277e-03  -4.8872155939317504e-03  -6.0302087881332128e-03  -7.4263637146936611e-03  -9.1243108294990112e-03  -1.1178147377984254e-02  -1.3645881402593339e-02  -1.6586373939663987e-02  -2.0054138743921653e-02  -2.4091289049589286e-02  -2.8716016031850634e-02  -3.3907414535170897e-02  -3.9587461339674501e-02  -4.5602688810909814e-02  -5.1710519824453946e-02  -5.7577669685637947e-02  -6.2798898547218138e-02  -6.6941485378556084e-02  -6.9612652859768753e-02  -7.0535527358901895e-02  -6.9610129221314473e-02  -6.6936796907148405e-02  -6.2792658521177561e-02  -5.7570586681244422e-02  -5.1703248940360706e-02  -4.5595737224721065e-02  -3.9581157083080500e-02  -3.3901922274895108e-02  -2.8711376111914939e-02  -2.4087460673245055e-02  -2.0051036622749822e-02  -1.6583894788521045e-02  -1.3643920774845653e-02  -1.1176609001054376e-02  -9.1231108216611023e-03  -7.4254316564881743e-03  -6.0294870626248637e-03  -4.8866579134128800e-03  -3.9543557864092360e-03  -3.1959764112088011e-03  -2.5805050607132602e-03  -2.0819494447713834e-03  -1.6787115809499687e-03  -1.3530362302886228e-03  -1.0878038338745374e-03  -1.2773064076904211e-03  -1.5942393858800420e-03  -1.9860851645958437e-03  -2.4739802873289924e-03  -3.0809249223423480e-03  -3.8352384223630004e-03  -4.7715173315182697e-03  -5.9317560524906870e-03  -7.3665045312674982e-03  -9.1359460079069050e-03  -1.1310689066759645e-02  -1.3971934326577172e-02  -1.7210483820825396e-02  -2.1123801786314851e-02  -2.5810018432386114e-02  -3.1357446560740250e-02  -3.7827997125967794e-02  -4.5233128950277438e-02  -5.3502151530618942e-02  -6.2445481902628212e-02  -7.1720330848989461e-02  -8.0812736430575863e-02  -8.9055042155834027e-02  -9.5696064739210551e-02  -1.0002608592008005e-01  -1.0153085771456714e-01  -1.0002205213465454e-01  -9.5688666692169452e-02  -8.9045391480270297e-02  -8.0802057428778884e-02  -7.1709681246344720e-02  -6.2435607193667912e-0