<?xml version="1.0"?>
<VTKFile type="UnstructuredGrid"  version="0.1"  >
<UnstructuredGrid>
<Piece  NumberOfPoints="5101" NumberOfCells="10000">
<Points>
<DataArray  type="Float64"  NumberOfComponents="3"  format="ascii">0 0 0  0.2 0 0  0.4 0 0  0.6 0 0  0.8 0 0  1 0 0  1.2 0 0  1.4 0 0  1.6 0 0  1.8 0 0  2 0 0  2.2 0 0  2.4 0 0  2.6 0 0  2.8 0 0  3 0 0  3.2 0 0  3.4 0 0  3.6 0 0  3.8 0 0  4 0 0  4.2 0 0  4.4 0 0  4.6 0 0  4.8 0 0  5 0 0  5.2 0 0  5.4 0 0  5.6 0 0  5.8 0 0  6 0 0  6.2 0 0  6.4 0 0  6.6 0 0  6.8 0 0  7 0 0  7.2 0 0  7.4 0 0  7.6 0 0  7.8 0 0  8 0 0  8.199999999999999 0 0  8.4 0 0  8.6 0 0  8.800000000000001 0 0  9 0 0  9.199999999999999 0 0  9.4 0 0  9.6 0 0  9.800000000000001 0 0  10 0 0  0 0.2 0  0.2 0.2 0  0.4 0.2 0  0.6 0.2 0  0.8 0.2 0  1 0.2 0  1.2 0.2 0  1.4 0.2 0  1.6 0.2 0  1.8 0.2 0  2 0.2 0  2.2 0.2 0  2.4 0.2 0  2.6 0.2 0  2.8 0.2 0  3 0.2 0  3.2 0.2 0  3.4 0.2 0  3.6 0.2 0  3.8 0.2 0  4 0.2 0  4.2 0.2 0  4.4 0.2 0  4.6 0.2 0  4.8 0.2 0  5 0.2 0  5.2 0.2 0  5.4 0.2 0  5.6 0.2 0  5.8 0.2 0  6 0.2 0  6.2 0.2 0  6.4 0.2 0  6.6 0.2 0  6.8 0.2 0  7 0.2 0  7.2 0.2 0  7.4 0.2 0  7.6 0.2 0  7.8 0.2 0  8 0.2 0  8.199999999999999 0.2 0  8.4 0.2 0  8.6 0.2 0  8.800000000000001 0.2 0  9 0.2 0  9.199999999999999 0.2 0  9.4 0.2 0  9.6 0.2 0  9.800000000000001 0.2 0  10 0.2 0  0 0.4 0  0.2 0.4 0  0.4 0.4 0  0.6 0.4 0  0.8 0.4 0  1 0.4 0  1.2 0.4 0  1.4 0.4 0  1.6 0.4 0  1.8 0.4 0  2 0.4 0  2.2 0.4 0  2.4 0.4 0  2.6 0.4 0  2.8 0.4 0  3 0.4 0  3.2 0.4 0  3.4 0.4 0  3.6 0.4 0  3.8 0.4 0  4 0.4 0  4.2 0.4 0  4.4 0.4 0  4.6 0.4 0  4.8 0.4 0  5 0.4 0  5.2 0.4 0  5.4 0.4 0  5.6 0.4 0  5.8 0.4 0  6 0.4 0  6.2 0.4 0  6.4 0.4 0  6.6 0.4 0  6.8 0.4 0  7 0.4 0  7.2 0.4 0  7.4 0.4 0  7.6 0.4 0  7.8 0.4 0  8 0.4 0  8.199999999999999 0.4 0  8.4 0.4 0  8.6 0.4 0  8.800000000000001 0.4 0  9 0.4 0  9.199999999999999 0.4 0  9.4 0.4 0  9.6 0.4 0  9.800000000000001 0.4 0  10 0.4 0  0 0.6 0  0.2 0.6 0  0.4 0.6 0  0.6 0.6 0  0.8 0.6 0  1 0.6 0  1.2 0.6 0  1.4 0.6 0  1.6 0.6 0  1.8 0.6 0  2 0.6 0  2.2 0.6 0  2.4 0.6 0  2.6 0.6 0  2.8 0.6 0  3 0.6 0  3.2 0.6 0  3.4 0.6 0  3.6 0.6 0  3.8 0.6 0  4 0.6 0  4.2 0.6 0  4.4 0.6 0  4.6 0.6 0  4.8 0.6 0  5 0.6 0  5.2 0.6 0  5.4 0.6 0  5.6 0.6 0  5.8 0.6 0  6 0.6 0  6.2 0.6 0  6.4 0.6 0  6.6 0.6 0  6.8 0.6 0  7 0.6 0  7.2 0.6 0  7.4 0.6 0  7.6 0.6 0  7.8 0.6 0  8 0.6 0  8.199999999999999 0.6 0  8.4 0.6 0  8.6 0.6 0  8.800000000000001 0.6 0  9 0.6 0  9.199999999999999 0.6 0  9.4 0.6 0  9.6 0.6 0  9.800000000000001 0.6 0  10 0.6 0  0 0.8 0  0.2 0.8 0  0.4 0.8 0  0.6 0.8 0  0.8 0.8 0  1 0.8 0  1.2 0.8 0  1.4 0.8 0  1.6 0.8 0  1.8 0.8 0  2 0.8 0  2.2 0.8 0  2.4 0.8 0  2.6 0.8 0  2.8 0.8 0  3 0.8 0  3.2 0.8 0  3.4 0.8 0  3.6 0.8 0  3.8 0.8 0  4 0.8 0  4.2 0.8 0  4.4 0.8 0  4.6 0.8 0  4.8 0.8 0  5 0.8 0  5.2 0.8 0  5.4 0.8 0  5.6 0.8 0  5.8 0.8 0  6 0.8 0  6.2 0.8 0  6.4 0.8 0  6.6 0.8 0  6.8 0.8 0  7 0.8 0  7.2 0.8 0  7.4 0.8 0  7.6 0.8 0  7.8 0.8 0  8 0.8 0  8.199999999999999 0.8 0  8.4 0.8 0  8.6 0.8 0  8.800000000000001 0.8 0  9 0.8 0  9.199999999999999 0.8 0  9.4 0.8 0  9.6 0.8 0  9.800000000000001 0.8 0  10 0.8 0  0 1 0  0.2 1 0  0.4 1 0  0.6 1 0  0.8 1 0  1 1 0  1.2 1 0  1.4 1 0  1.6 1 0  1.8 1 0  2 1 0  2.2 1 0  2.4 1 0  2.6 1 0  2.8 1 0  3 1 0  3.2 1 0  3.4 1 0  3.6 1 0  3.8 1 0  4 1 0  4.2 1 0  4.4 1 0  4.6 1 0  4.8 1 0  5 1 0  5.2 1 0  5.4 1 0  5.6 1 0  5.8 1 0  6 1 0  6.2 1 0  6.4 1 0  6.6 1 0  6.8 1 0  7 1 0  7.2 1 0  7.4 1 0  7.6 1 0  7.8 1 0  8 1 0  8.199999999999999 1 0  8.4 1 0  8.6 1 0  8.800000000000001 1 0  9 1 0  9.199999999999999 1 0  9.4 1 0  9.6 1 0  9.800000000000001 1 0  10 1 0  0 1.2 0  0.2 1.2 0  0.4 1.2 0  0.6 1.2 0  0.8 1.2 0  1 1.2 0  1.2 1.2 0  1.4 1.2 0  1.6 1.2 0  1.8 1.2 0  2 1.2 0  2.2 1.2 0  2.4 1.2 0  2.6 1.2 0  2.8 1.2 0  3 1.2 0  3.2 1.2 0  3.4 1.2 0  3.6 1.2 0  3.8 1.2 0  4 1.2 0  4.2 1.2 0  4.4 1.2 0  4.6 1.2 0  4.8 1.2 0  5 1.2 0  5.2 1.2 0  5.4 1.2 0  5.6 1.2 0  5.8 1.2 0  6 1.2 0  6.2 1.2 0  6.4 1.2 0  6.6 1.2 0  6.8 1.2 0  7 1.2 0  7.2 1.2 0  7.4 1.2 0  7.6 1.2 0  7.8 1.2 0  8 1.2 0  8.199999999999999 1.2 0  8.4 1.2 0  8.6 1.2 0  8.800000000000001 1.2 0  9 1.2 0  9.199999999999999 1.2 0  9.4 1.2 0  9.6 1.2 0  9.800000000000001 1.2 0  10 1.2 0  0 1.4 0  0.2 1.4 0  0.4 1.4 0  0.6 1.4 0  0.8 1.4 0  1 1.4 0  1.2 1.4 0  1.4 1.4 0  1.6 1.4 0  1.8 1.4 0  2 1.4 0  2.2 1.4 0  2.4 1.4 0  2.6 1.4 0  2.8 1.4 0  3 1.4 0  3.2 1.4 0  3.4 1.4 0  3.6 1.4 0  3.8 1.4 0  4 1.4 0  4.2 1.4 0  4.4 1.4 0  4.6 1.4 0  4.8 1.4 0  5 1.4 0  5.2 1.4 0  5.4 1.4 0  5.6 1.4 0  5.8 1.4 0  6 1.4 0  6.2 1.4 0  6.4 1.4 0  6.6 1.4 0  6.8 1.4 0  7 1.4 0  7.2 1.4 0  7.4 1.4 0  7.6 1.4 0  7.8 1.4 0  8 1.4 0  8.199999999999999 1.4 0  8.4 1.4 0  8.6 1.4 0  8.800000000000001 1.4 0  9 1.4 0  9.199999999999999 1.4 0  9.4 1.4 0  9.6 1.4 0  9.800000000000001 1.4 0  10 1.4 0  0 1.6 0  0.2 1.6 0  0.4 1.6 0  0.6 1.6 0  0.8 1.6 0  1 1.6 0  1.2 1.6 0  1.4 1.6 0  1.6 1.6 0  1.8 1.6 0  2 1.6 0  2.2 1.6 0  2.4 1.6 0  2.6 1.6 0  2.8 1.6 0  3 1.6 0  3.2 1.6 0  3.4 1.6 0  3.6 1.6 0  3.8 1.6 0  4 1.6 0  4.2 1.6 0  4.4 1.6 0  4.6 1.6 0  4.8 1.6 0  5 1.6 0  5.2 1.6 0  5.4 1.6 0  5.6 1.6 0  5.8 1.6 0  6 1.6 0  6.2 1.6 0  6.4 1.6 0  6.6 1.6 0  6.8 1.6 0  7 1.6 0  7.2 1.6 0  7.4 1.6 0  7.6 1.6 0  7.8 1.6 0  8 1.6 0  8.199999999999999 1.6 0  8.4 1.6 0  8.6 1.6 0  8.800000000000001 1.6 0  9 1.6 0  9.199999999999999 1.6 0  9.4 1.6 0  9.6 1.6 0  9.800000000000001 1.6 0  10 1.6 0  0 1.8 0  0.2 1.8 0  0.4 1.8 0  0.6 1.8 0  0.8 1.8 0  1 1.8 0  1.2 1.8 0  1.4 1.8 0  1.6 1.8 0  1.8 1.8 0  2 1.8 0  2.2 1.8 0  2.4 1.8 0  2.6 1.8 0  2.8 1.8 0  3 1.8 0  3.2 1.8 0  3.4 1.8 0  3.6 1.8 0  3.8 1.8 0  4 1.8 0  4.2 1.8 0  4.4 1.8 0  4.6 1.8 0  4.8 1.8 0  5 1.8 0  5.2 1.8 0  5.4 1.8 0  5.6 1.8 0  5.8 1.8 0  6 1.8 0  6.2 1.8 0  6.4 1.8 0  6.6 1.8 0  6.8 1.8 0  7 1.8 0  7.2 1.8 0  7.4 1.8 0  7.6 1.8 0  7.8 1.8 0  8 1.8 0  8.199999999999999 1.8 0  8.4 1.8 0  8.6 1.8 0  8.800000000000001 1.8 0  9 1.8 0  9.199999999999999 1.8 0  9.4 1.8 0  9.6 1.8 0  9.800000000000001 1.8 0  10 1.8 0  0 2 0  0.2 2 0  0.4 2 0  0.6 2 0  0.8 2 0  1 2 0  1.2 2 0  1.4 2 0  1.6 2 0  1.8 2 0  2 2 0  2.2 2 0  2.4 2 0  2.6 2 0  2.8 2 0  3 2 0  3.2 2 0  3.4 2 0  3.6 2 0  3.8 2 0  4 2 0  4.2 2 0  4.4 2 0  4.6 2 0  4.8 2 0  5 2 0  5.2 2 0  5.4 2 0  5.6 2 0  5.8 2 0  6 2 0  6.2 2 0  6.4 2 0  6.6 2 0  6.8 2 0  7 2 0  7.2 2 0  7.4 2 0  7.6 2 0  7.8 2 0  8 2 0  8.199999999999999 2 0  8.4 2 0  8.6 2 0  8.800000000000001 2 0  9 2 0  9.199999999999999 2 0  9.4 2 0  9.6 2 0  9.800000000000001 2 0  10 2 0  0 2.2 0  0.2 2.2 0  0.4 2.2 0  0.6 2.2 0  0.8 2.2 0  1 2.2 0  1.2 2.2 0  1.4 2.2 0  1.6 2.2 0  1.8 2.2 0  2 2.2 0  2.2 2.2 0  2.4 2.2 0  2.6 2.2 0  2.8 2.2 0  3 2.2 0  3.2 2.2 0  3.4 2.2 0  3.6 2.2 0  3.8 2.2 0  4 2.2 0  4.2 2.2 0  4.4 2.2 0  4.6 2.2 0  4.8 2.2 0  5 2.2 0  5.2 2.2 0  5.4 2.2 0  5.6 2.2 0  5.8 2.2 0  6 2.2 0  6.2 2.2 0  6.4 2.2 0  6.6 2.2 0  6.8 2.2 0  7 2.2 0  7.2 2.2 0  7.4 2.2 0  7.6 2.2 0  7.8 2.2 0  8 2.2 0  8.199999999999999 2.2 0  8.4 2.2 0  8.6 2.2 0  8.800000000000001 2.2 0  9 2.2 0  9.199999999999999 2.2 0  9.4 2.2 0  9.6 2.2 0  9.800000000000001 2.2 0  10 2.2 0  0 2.4 0  0.2 2.4 0  0.4 2.4 0  0.6 2.4 0  0.8 2.4 0  1 2.4 0  1.2 2.4 0  1.4 2.4 0  1.6 2.4 0  1.8 2.4 0  2 2.4 0  2.2 2.4 0  2.4 2.4 0  2.6 2.4 0  2.8 2.4 0  3 2.4 0  3.2 2.4 0  3.4 2.4 0  3.6 2.4 0  3.8 2.4 0  4 2.4 0  4.2 2.4 0  4.4 2.4 0  4.6 2.4 0  4.8 2.4 0  5 2.4 0  5.2 2.4 0  5.4 2.4 0  5.6 2.4 0  5.8 2.4 0  6 2.4 0  6.2 2.4 0  6.4 2.4 0  6.6 2.4 0  6.8 2.4 0  7 2.4 0  7.2 2.4 0  7.4 2.4 0  7.6 2.4 0  7.8 2.4 0  8 2.4 0  8.199999999999999 2.4 0  8.4 2.4 0  8.6 2.4 0  8.800000000000001 2.4 0  9 2.4 0  9.199999999999999 2.4 0  9.4 2.4 0  9.6 2.4 0  9.800000000000001 2.4 0  10 2.4 0  0 2.6 0  0.2 2.6 0  0.4 2.6 0  0.6 2.6 0  0.8 2.6 0  1 2.6 0  1.2 2.6 0  1.4 2.6 0  1.6 2.6 0  1.8 2.6 0  2 2.6 0  2.2 2.6 0  2.4 2.6 0  2.6 2.6 0  2.8 2.6 0  3 2.6 0  3.2 2.6 0  3.4 2.6 0  3.6 2.6 0  3.8 2.6 0  4 2.6 0  4.2 2.6 0  4.4 2.6 0  4.6 2.6 0  4.8 2.6 0  5 2.6 0  5.2 2.6 0  5.4 2.6 0  5.6 2.6 0  5.8 2.6 0  6 2.6 0  6.2 2.6 0  6.4 2.6 0  6.6 2.6 0  6.8 2.6 0  7 2.6 0  7.2 2.6 0  7.4 2.6 0  7.6 2.6 0  7.8 2.6 0  8 2.6 0  8.199999999999999 2.6 0  8.4 2.6 0  8.6 2.6 0  8.800000000000001 2.6 0  9 2.6 0  9.199999999999999 2.6 0  9.4 2.6 0  9.6 2.6 0  9.800000000000001 2.6 0  10 2.6 0  0 2.8 0  0.2 2.8 0  0.4 2.8 0  0.6 2.8 0  0.8 2.8 0  1 2.8 0  1.2 2.8 0  1.4 2.8 0  1.6 2.8 0  1.8 2.8 0  2 2.8 0  2.2 2.8 0  2.4 2.8 0  2.6 2.8 0  2.8 2.8 0  3 2.8 0  3.2 2.8 0  3.4 2.8 0  3.6 2.8 0  3.8 2.8 0  4 2.8 0  4.2 2.8 0  4.4 2.8 0  4.6 2.8 0  4.8 2.8 0  5 2.8 0  5.2 2.8 0  5.4 2.8 0  5.6 2.8 0  5.8 2.8 0  6 2.8 0  6.2 2.8 0  6.4 2.8 0  6.6 2.8 0  6.8 2.8 0  7 2.8 0  7.2 2.8 0  7.4 2.8 0  7.6 2.8 0  7.8 2.8 0  8 2.8 0  8.199999999999999 2.8 0  8.4 2.8 0  8.6 2.8 0  8.800000000000001 2.8 0  9 2.8 0  9.199999999999999 2.8 0  9.4 2.8 0  9.6 2.8 0  9.800000000000001 2.8 0  10 2.8 0  0 3 0  0.2 3 0  0.4 3 0  0.6 3 0  0.8 3 0  1 3 0  1.2 3 0  1.4 3 0  1.6 3 0  1.8 3 0  2 3 0  2.2 3 0  2.4 3 0  2.6 3 0  2.8 3 0  3 3 0  3.2 3 0  3.4 3 0  3.6 3 0  3.8 3 0  4 3 0  4.2 3 0  4.4 3 0  4.6 3 0  4.8 3 0  5 3 0  5.2 3 0  5.4 3 0  5.6 3 0  5.8 3 0  6 3 0  6.2 3 0  6.4 3 0  6.6 3 0  6.8 3 0  7 3 0  7.2 3 0  7.4 3 0  7.6 3 0  7.8 3 0  8 3 0  8.199999999999999 3 0  8.4 3 0  8.6 3 0  8.800000000000001 3 0  9 3 0  9.199999999999999 3 0  9.4 3 0  9.6 3 0  9.800000000000001 3 0  10 3 0  0 3.2 0  0.2 3.2 0  0.4 3.2 0  0.6 3.2 0  0.8 3.2 0  1 3.2 0  1.2 3.2 0  1.4 3.2 0  1.6 3.2 0  1.8 3.2 0  2 3.2 0  2.2 3.2 0  2.4 3.2 0  2.6 3.2 0  2.8 3.2 0  3 3.2 0  3.2 3.2 0  3.4 3.2 0  3.6 3.2 0  3.8 3.2 0  4 3.2 0  4.2 3.2 0  4.4 3.2 0  4.6 3.2 0  4.8 3.2 0  5 3.2 0  5.2 3.2 0  5.4 3.2 0  5.6 3.2 0  5.8 3.2 0  6 3.2 0  6.2 3.2 0  6.4 3.2 0  6.6 3.2 0  6.8 3.2 0  7 3.2 0  7.2 3.2 0  7.4 3.2 0  7.6 3.2 0  7.8 3.2 0  8 3.2 0  8.199999999999999 3.2 0  8.4 3.2 0  8.6 3.2 0  8.800000000000001 3.2 0  9 3.2 0  9.199999999999999 3.2 0  9.4 3.2 0  9.6 3.2 0  9.800000000000001 3.2 0  10 3.2 0  0 3.4 0  0.2 3.4 0  0.4 3.4 0  0.6 3.4 0  0.8 3.4 0  1 
[...]
<PointData  Scalars="f_5"> 
<DataArray  type="Float64"  Name="f_5"  format="ascii">3.5853058142962781e-02  2.8579114989539506e-01  4.2411774123827273e-01  5.1760144522164564e-01  5.8658610375630604e-01  6.3984743422148416e-01  6.8269197798724968e-01  7.1855997646754433e-01  7.4995517045920368e-01  7.7891820600475981e-01  8.0733139618787630e-01  8.3712764058536115e-01  8.7043859093257536e-01  9.0970048510311674e-01  9.5772715010520659e-01  1.0177503391781344e+00  1.0934038211259125e+00  1.1885339434818860e+00  1.3063615588039201e+00  1.4463663115390337e+00  1.5949470366615468e+00  1.7131356111902574e+00  1.7808598526835679e+00  1.8904284376932239e+00  1.9951360235401663e+00  2.0098442918073025e+00  2.0025063917033443e+00  2.0012155321192777e+00  1.8160704318409591e+00  1.7477261983461481e+00  1.6604133972311934e+00  1.5213714706193830e+00  1.3762879237400241e+00  1.2496393877991525e+00  1.1458535978778017e+00  1.0626121483400042e+00  9.9613370898914988e-01  9.4265717132250426e-01  8.9879379933491887e-01  8.6157974931421710e-01  8.2844353702916407e-01  7.9713469753278299e-01  7.6561851076927434e-01  7.3192822764712351e-01  6.9395584805392940e-01  6.4914551989099945e-01  5.9401664377410091e-01  5.2322986168022034e-01  4.2797982432303655e-01  2.8788939408552205e-01  3.6252687698138157e-02  1.6833800061425739e-02  1.7560405037989185e-01  2.8798359137130425e-01  3.7451610699841537e-01  4.3902386353820094e-01  4.8984168361008307e-01  5.3106617885587981e-01  5.6586946352458800e-01  5.9660617120414638e-01  6.2525255515809108e-01  6.5366529341220914e-01  6.8376773524317880e-01  7.1769004477844445e-01  7.5787796117672146e-01  8.0718236187547121e-01  8.6893935918041842e-01  9.4705134988930972e-01  1.0461266749466664e+00  1.1718274035728755e+00  1.3296818562212847e+00  1.5105465951451242e+00  1.6558069275323684e+00  1.6963979499780113e+00  1.7236324315696716e+00  1.7914467016028528e+00  1.7749370577926391e+00  1.7778823486954316e+00  1.8249754923564747e+00  1.7146233695175128e+00  1.6931562646046592e+00  1.5916061959845331e+00  1.4168715439385520e+00  1.2474574327326384e+00  1.1097704703466169e+00  1.0009660357310868e+00  9.1486491484351939e-01  8.4645352314036448e-01  7.9157181038712943e-01  7.4668037036767032e-01  7.0876054821381773e-01  6.7522648232491322e-01  6.4383008229550753e-01  6.1254901675764151e-01  5.7944480298778556e-01  5.4247520335388244e-01  4.9923337545693452e-01  4.4650560137343082e-01  3.8016057301767808e-01  2.9183324915418329e-01  1.7765896139856155e-01  1.7137727555750843e-02  8.3550216604254927e-03  1.1377219854137639e-01  1.9874895944283841e-01  2.6864758770318281e-01  3.2434060311996465e-01  3.6935667307894643e-01  4.0664471560729076e-01  4.3859682457772969e-01  4.6719667454920949e-01  4.9421001055865432e-01  5.2135740311923451e-01  5.5045747958901381e-01  5.8354254593144883e-01  6.2295304374782690e-01  6.7141876091226260e-01  7.3213572828067630e-01  8.0884874074920954e-01  9.0597188644791904e-01  1.0287744084110566e+00  1.1818486709995677e+00  1.3555713360838078e+00  1.4964608116937868e+00  1.5442280381759572e+00  1.5781273405648792e+00  1.6649432579883023e+00  1.6480503186777533e+00  1.6492306420318912e+00  1.6747905833719441e+00  1.5647720263649418e+00  1.5362546518888580e+00  1.4343234102139062e+00  1.2666784382977905e+00  1.1033813737728548e+00  9.6939378935868370e-01  8.6294259610565571e-01  7.7847199557820701e-01  7.1123197331965093e-01  6.5724481231545995e-01  6.1313120982546332e-01  5.7601151721157950e-01  5.4342003459175170e-01  5.1321822832326625e-01  4.8349718976023198e-01  4.5246039979032432e-01  4.1827931418251962e-01  3.7891896303413958e-01  3.3194499920562759e-01  2.7437235906201812e-01  2.0264210579320491e-01  1.1583401474332150e-01  8.6760309683743871e-03  5.5030601606417991e-03  7.6019476570570704e-02  1.3695080226366782e-01  1.9072442014680727e-01  2.3565515902135356e-01  2.7333876071896901e-01  3.0537230132729015e-01  3.3341341832631255e-01  3.5901075314902686e-01  3.8366155331357277e-01  4.0890163603426483e-01  4.3640040281676268e-01  4.6804814282305474e-01  5.0603281600701155e-01  5.5290903328209529e-01  6.1166435023511101e-01  6.8578865000392653e-01  7.7937259221128119e-01  8.9719677245608176e-01  1.0427742010915750e+00  1.2051294189726633e+00  1.3356615402105123e+00  1.3882560494722274e+00  1.4344126732979665e+00  1.5303300805894060e+00  1.5156183015609386e+00  1.5164304653638705e+00  1.5193746445402125e+00  1.4126590668914083e+00  1.3763139040172025e+00  1.2796668466174230e+00  1.1244055849934891e+00  9.7049775194429699e-01  8.4258227010705011e-01  7.4029634668966160e-01  6.5878751498717436e-01  5.9370957773379285e-01  5.4139006849976001e-01  4.9869569205023312e-01  4.6295089564922293e-01  4.3186492244383928e-01  4.0345834553190257e-01  3.7598387540893896e-01  3.4783792408924413e-01  3.1746486640607890e-01  2.8326609289437371e-01  2.4354092992766482e-01  1.9665455405759166e-01  1.4097916024243481e-01  7.8152766353260447e-02  5.8450299546005105e-03  3.2048147047182935e-03  5.0608498753770367e-02  9.3130627223427312e-02  1.3262586108849914e-01  1.6714903668105952e-01  1.9715303739044912e-01  2.2342355318087903e-01  2.4702590144211795e-01  2.6911447078216627e-01  2.9091522670438424e-01  3.1376073866683452e-01  3.3914765645300382e-01  3.6879927314352839e-01  4.0472566270021648e-01  4.4927987451383133e-01  5.0521138120766895e-01  5.7571840611286740e-01  6.6451070277600111e-01  7.7573149083582271e-01  9.1147372652109082e-01  1.0593365670090702e+00  1.1766462224742400e+00  1.2320551024637059e+00  1.2900818645570737e+00  1.3862915324644054e+00  1.3772903015494926e+00  1.3780940727170825e+00  1.3620810983872975e+00  1.2604506293989872e+00  1.2180928490724716e+00  1.1294421208488303e+00  9.8970082286434946e-01  8.4784093282189044e-01  7.2785937133081591e-01  6.3109957627987134e-01  5.5362573182830777e-01  4.9158025237902508e-01  4.4164485605346876e-01  4.0097102005291213e-01  3.6712057621173905e-01  3.3800792795950951e-01  3.1184083479561814e-01  2.8705889379656402e-01  2.6227066529037879e-01  2.3619626495200904e-01  2.0763230248373662e-01  1.7546907126402694e-01  1.3888089701425907e-01  9.7380314383375133e-02  5.2862539397644431e-02  3.5780337091700248e-03  1.5762028812392628e-03  3.2402931711813819e-02  6.0842149318545972e-02  8.8578592543315071e-02  1.1382335022290781e-01  1.3656515941709729e-01  1.5712544437679102e-01  1.7616462071085431e-01  1.9452374692921684e-01  2.1318602159837294e-01  2.3328485719195510e-01  2.5613791583014450e-01  2.8329212876084897e-01  3.1657099015966994e-01  3.5811973903643701e-01  4.1044561694655590e-01  4.7644921159894454e-01  5.5943502440305848e-01  6.6281639636439327e-01  7.8716340651958039e-01  9.1914048101020807e-01  1.0228802820349481e+00  1.0801862023457178e+00  1.1477199091929087e+00  1.2361180199812074e+00  1.2346021459092797e+00  1.2352368356534547e+00  1.2073234062157085e+00  1.1126051000844595e+00  1.0662306033136617e+00  9.8609540737605861e-01  8.6273518089212420e-01  7.3436861685685939e-01  6.2360657446473511e-01  5.3339797224681196e-01  4.6081843077445367e-01  4.0254098661545251e-01  3.5561666691330768e-01  3.1749229702387538e-01  2.8597799811864555e-01  2.5920498255673718e-01  2.3557899535718829e-01  2.1373295394184944e-01  1.9248281309755291e-01  1.7079478459275801e-01  1.4777849878004246e-01  1.2272658538219186e-01  9.5274359795133892e-02  6.5395037370795467e-02  3.4823251103458623e-02  1.9921288970227284e-03  2.7931986024151934e-04  1.8789491810286919e-02  3.6341585005114162e-02  5.4519914541814568e-02  7.1811934492038626e-02  8.8022046245597854e-02  1.0323036901457326e-01  1.1783608640605005e-01  1.3244547600163495e-01  1.4783627820919978e-01  1.6495699887769841e-01  1.8494948721709892e-01  2.0918412726486080e-01  2.3929959868834746e-01  2.7724104407086703e-01  3.2528987224908795e-01  3.8607322031495206e-01  4.6250821564609240e-01  5.5727774070649883e-01  6.6963534430978644e-01  7.8627400757500532e-01  8.7842433339042791e-01  9.3729697416842384e-01  1.0097745201506783e+00  1.0846642321457254e+00  1.0902461384651163e+00  1.0902351612466785e+00  1.0571526845453914e+00  9.7397448372536077e-01  9.2571818873640688e-01  8.5264115522012940e-01  7.4425086167334387e-01  6.2947175659080268e-01  5.2856009845541752e-01  4.4555788780779726e-01  3.7848993119552032e-01  3.2454777345419589e-01  2.8113425231717876e-01  2.4597995912202197e-01  2.1713892284518002e-01  1.9295898103492024e-01  1.7204395562348559e-01  1.5321551658318325e-01  1.3548058744789232e-01  1.1801171632351462e-01  1.0015065800063573e-01  8.1446685468913108e-02  6.1771606208222751e-02  4.1278362411828140e-02  2.1419702660639965e-02  7.4987740450613261e-04  -8.0881722652049873e-04  8.2507095292228688e-03  1.7222453991125358e-02  2.7615104412907023e-02  3.8172455417368294e-02  4.8638863894853494e-02  5.8973105803350495e-02  6.9406977267681844e-02  8.0371680728799702e-02  9.2472225683662437e-02  1.0648705020629801e-01  1.2338722175610330e-01  1.4436842800486302e-01  1.7088898780833750e-01  2.0470671734577572e-01  2.4790427743894389e-01  3.0288132342467389e-01  3.7223364217727478e-01  4.5805305784091532e-01  5.5880937227938976e-01  6.6231199480372716e-01  7.4612553332920839e-01  8.0587097069477043e-01  8.7632651640836789e-01  9.3596033981076654e-01  9.4690397740096388e-01  9.4605709575762664e-01  9.1368742752057919e-01  8.4767311354054675e-01  7.9963646907052677e-01  7.3122771865497127e-01  6.3486253558579431e-01  5.3260647470154399e-01  4.4159241128101029e-01  3.6615332338911161e-01  3.0501749785366933e-01  2.5582277334326758e-01  2.1628524591690607e-01  1.8439820934805415e-01  1.5845027643619239e-01  1.3700215311390931e-01  1.1885221144280737e-01  1.0300254231043125e-01  8.8632127942366162e-02  7.5083024581915597e-02  6.1865762132469818e-02  4.8689441324477341e-02  3.5540198705642623e-02  2.2624934631468811e-02  1.1133413750517780e-02  -2.7131880661380574e-04  -1.7750249904178359e-03  -1.7444355027878753e-04  1.8717494308293843e-03  5.8343160009074217e-03  1.0666045619770846e-02  1.6104430396257960e-02  2.2048861070703678e-02  2.8620353890737704e-02  3.6115084974322351e-02  4.4988533614961558e-02  5.5858737183521252e-02  6.9526787316715369e-02  8.7010671081520552e-02  1.0958688529920670e-01  1.3883213099339112e-01  1.7665192635305416e-01  2.2526578960842400e-01  2.8704469499261265e-01  3.6374479792170988e-01  4.5375445165330980e-01  5.4686725965770544e-01  6.2553943161862835e-01  6.8535946165553541e-01  7.4695720946904975e-01  7.9324148560284280e-01  8.0767483931269335e-01  8.0670826111519833e-01  7.8075077577952612e-01  7.3362680772506528e-01  6.8705157841257680e-01  6.2113171579850435e-01  5.3383834833166643e-01  4.4274325621017063e-01  3.6147606328939014e-01  2.9385828377503859e-01  2.3898497559981205e-01  1.9484140228910357e-01  1.5942336576969157e-01  1.3097554997445282e-01  1.0801970591598410e-01  8.9330734479329849e-02  7.3900758507712036e-02  6.0905501577056965e-02  4.9679626571202694e-02  3.9705199740885135e-02  3.0616250646606336e-02  2.2221103778051490e-02  1.4555397103302484e-02  7.8248658858899988e-03  3.0026103212309695e-03  -1.1580173373315051e-03  -2.6800435654250982e-03  -7.1386404397080295e-03  -1.0854586186732372e-02  -1.2328548355170188e-02  -1.2444004851110533e-02  -1.1445677631767509e-02  -9.4604753489033033e-03  -6.4438503942807280e-03  -2.2090739002498983e-03  3.5634201475668701e-03  1.1332987859993916e-02  2.1722897659490405e-02  3.5559685366402728e-02  5.3922742979212082e-02  7.8195737703312992e-02  1.1010457628132977e-01  1.5170615967110523e-01  2.0521674791821956e-01  2.7229285698221267e-01  3.5181538734984025e-01  4.3607166976000300e-01  5.1137173215829523e-01  5.7120497387927427e-01  6.2305871059635554e-01  6.6023109422284365e-01  6.7697307750311864e-01  6.7793691845771409e-01  6.6065091569133438e-01  6.2724350045796884e-01  5.8202667868609748e-01  5.1783027658260938e-01  4.3847252758788402e-01  3.5812667300250917e-01  2.8684306650589947e-01  2.2745502294381501e-01  1.7919017147447810e-01  1.4033211647830227e-01  1.0916317894361151e-01  8.4197244250590914e-02  6.4206784173433340e-02  4.8194117392675977e-02  3.5351501094259268e-02  2.5025990514587745e-02  1.6695599294818210e-02  9.9594588639063796e-03  4.5423734230593373e-03  3.1264025049143569e-04  -2.6809345701159022e-03  -4.2606253956922789e-03  -3.6256294022227412e-03  -1.9704413982510453e-03  -3.5697435239411181e-03  -1.3113622834334118e-02  -2.1815857122006767e-02  -2.8042890229296489e-02  -3.2551370727040195e-02  -3.5552983710383956e-02  -3.7179452990305194e-02  -3.7438563499595359e-02  -3.6235364056411840e-02  -3.3380007603987176e-02  -2.8579046162474257e-02  -2.1406670866668028e-02  -1.1256751011816788e-02  2.7185527275897696e-03  2.1673159630152247e-02  4.7116635692176209e-02  8.0910799818451853e-02  1.2510998390931596e-01  1.8135399542133757e-01  2.4923256903942997e-01  3.2364143309465981e-01  3.9460268947594201e-01  4.5427083217292152e-01  5.0184976592021013e-01  5.3578495794405689e-01  5.5462768879108260e-01  5.5880771356234848e-01  5.4740960011500739e-01  5.1990628196678790e-01  4.7579157932006250e-01  4.1527780628879973e-01  3.4546569359323831e-01  2.7697987867107032e-01  2.1654982318290183e-01  1.6601602565159643e-01  1.2472173366180456e-01  9.1295504213960973e-02  6.4368543711384091e-02  4.2777237101545067e-02  2.5585169655075880e-02  1.2049944611704517e-02  1.5794121014585177e-03  -6.3051286285027725e-03  -1.1991540772084447e-02  -1.5783382987556171e-02  -1.7892175652299967e-02  -1.8419316491233049e-02  -1.7327164952953448e-02  -1.4482951169906472e-02  -9.2219692663153569e-03  -2.7531177863854184e-03  -4.4822516124037003e-03  -1.8463033653354940e-02  -3.1697974383626225e-02  -4.2266261476590856e-02  -5.0827032263445683e-02  -5.7544015838310383e-02  -6.2532991847005379e-02  -6.5830413595438925e-02  -6.7416673572846766e-02  -6.7229771164319732e-02  -6.5158574079793100e-02  -6.1008784543239103e-02  -5.4442268222041443e-02  -4.4898631665289387e-02  -3.1514305797204309e-02  -1.3060857101764765e-02  1.2059441693051225e-02  4.5674812715071240e-02  8.9367314239327034e-02  1.4335575421803698e-01  2.0482553266942677e-01  2.6740428465563482e-01  3.2407565961809953e-01  3.7065276507277756e-01  4.0517794425529646e-01  4.2648157953702148e-01  4.3366538950953260e-01  4.2560713363915120e-01  4.0148657929218157e-01  3.6182547316236074e-01  3.1015496407639320e-01  2.5340722609990096e-01  1.9870477357217484e-01  1.5022300903593971e-01  1.0914286556643872e-01  7.5049292511363011e-02  4.7019901202013568e-02  2.4129467359788256e-02  5.6133749175514922e-03  -9.1155153539562786e-03  -2.0503079704583052e-02  -2.8901491853107340e-02  -3.4607920382086751e-02  -3.7884804846568330e-02  -3.8959728501494754e-02  -3.8009044293028628e-02  -3.5132892102822541e-02  -3.0326611966179723e-02  -2.3517113621746535e-02  -1.4146700381548406e-02  -3.5414806589942182e-03  -5.4531160851745853e-03  -2.3486880754205863e-02  -4.1082599566879846e-02  -5.5826915374013408e-02  -6.8306208385699146e-02  -7.8616248313700815e-02  -8.6828506234277167e-02  -9.2976076818524156e-02  -9.7092449967080427e-02  -9.9242250953621991e-02  -9.9522506124673421e-02  -9.8022195933522058e-02  -9.4741374744565204e-02  -8.9485652612556185e-02  -8.1760999201434953e-02  -7.0696762011998315e-02  -5.5031325658056171e-02  -3.3221801011419555e-02  -3.7921689258102790e-03  3.3946425715007431e-02  7.8899562704143084e-02  1.2766682052630654e-01  1.7548345174626448e-01  2.1802527641394892e-01  2.5219760776900746e-01  2.7578161776803117e-01  2.8705849091305008e-01  2.8480578528459077e-01  2.6880290271306440e-01  2.4059479240968937e-01  2.0388006541518150e-01  1.6364471666499941e-01  1.2429894087370796e-01  8.8455562355965953e-02  5.7045223286311286e-02  3.0038452605202381e-02  7.0599012745030691e-03  -1.2281775751201684e-02  -2.8271922588039320e-02  -4.1080562831713865e-02  -5.0804468984866000e-02  -5.7522744435970871e-02  -6.1340630526333158e-02  -6.2406949290502660e-02  -6.0902195414899780e-02  -5.7004888704893932e-02  -5.0849940356968049e-02  -4.2491244191497649e-02  -3.1931435898255679e-02  -1.8694100376800995e-02  -4.3665909833243864e-03  -6.5195671193548146e-03  -2.8447569586103453e-02  -5.0487047568598981e-02  -6.9472601279090190e-02  -8.5941657940606861e-02  -9.9893077746311912e-02  -1.1131049166078093e-01  -1.2017415068912445e-01  -1.2653470118689431e-01  -1.3057865648288006e-01  -1.3264728152595601e-01  -1.3318742762278468e-01  -1.3263654165037228e-01  -1.3127067572612341e-01  -1.2905941063333240e-01  -1.2556619206900022e-01  -1.1991976296933703e-01  -1.1088591695228359e-01  -9.7092009618726188e-02  -7.7456326241682957e-02  -5.1761315674074833e-02  -2.1064401376337184e-02  1.2441788688829388e-02  4.6041766844099934e-02  7.7008929818136465e-02  1.0277003856052729e-01  1.2100758990976858e-01  1.2995462172336006e-01  1.2888624648235247e-01  1.1853629237313108e-01  1.0104420699927706e-01  7.9265438366095106e-02  5.5825046537915805e-02  3.2538074475347532e-02  1.0396507106259658e-02  -1.0138565806879357e-02  -2.8831376865039983e-02  -4.5473114741538076e-02  -5.9797269849186846e-02  -7.1482461092597413e-02  -8.0210620113952441e-02  -8.5743576386919471e-02  -8.7981515582172917e-02  -8.6978908763009552e-02  -8.2913116618189647e-02  -7.6019571693679941e-02  -6.6518425800225434e-02  -5.4556394988459878e-02  -4.0231160049093197e-02  -2.3120455598702613e-02  -5.2589654230498677e-03  -7.7238881615360345e-03  -3.3580113394875134e-02  -6.0377243449904000e-02  -8.3882725780926634e-02  -1.0461162043240593e-01  -1.2242607015637536e-01  -1.3715649672109956e-01  -1.4865439815124282e-01  -1.5693011134859375e-01  -1.6227988165151688e-01  -1.6533681812193515e-01  -1.6700964313079719e-01  -1.6831056632416971e-01  -1.7012254004985730e-01  -1.7298757359471853e-01  -1.7697625831232347e-01  -1.8164709185108122e-01  -1.8607838840792920e-01  -1.8897073257808983e-01  -1.8883724262607041e-01  -1.8427522986386882e-01  -1.7424713399211617e-01  -1.5828104266879417e-01  -1.3660372855004307e-01  -1.1029171072672227e-01  -8.1388991708305575e-02  -5.2771906976022256e-02  -2.7614801587715874e-02  -8.5886660012155537e-03  2.8292748448408046e-03  6.5738958057644133e-03  3.6717898702422398e-03  -4.3507275939144866e-03  -1.5972242517582075e-02  -2.9913775653870024e-02  -4.5146573564706229e-02  -6.0789055700129851e-02  -7.5991660132299965e-02  -8.9871783266745969e-02  -1.0153093897992727e-01  -1.1014868895325643e-01  -1.1510718625069709e-01  -1.1608401007414373e-01  -1.1307064232789854e-01  -1.0630965986726054e-01  -9.6175986915675735e-02  -8.3047790411937439e-02  -6.7211444358302536e-02  -4.8882738396148970e-02  -2.7659911253326848e-02  -6.2515331039615131e-03  -9.1166459483569048e-03  -3.9085454410514406e-02  -7.1146566643400369e-02  -9.9627519439438053e-02  -1.2505250577386864e-01  -1.4709799958212957e-01  -1.6535051911260248e-01  -1.7942586466409949e-01  -1.8921316450803724e-01  -1.9509906582916250e-01  -1.9806741134536363e-01  -1.9962451203443959e-01  -2.0154008040612389e-01  -2.0547777148229301e-01  -2.1267389532289033e-01  -2.2377497967502655e-01  -2.3880875410392630e-01  -2.5719276562494026e-01  -2.7771458138213428e-01  -2.9848235599446288e-01  -3.1689883886729608e-01  -3.2975610601533639e-01  -3.3358808958531416e-01  -3.2540121653573989e-01  -3.0372096831301038e-01  -2.6955115584979999e-01  -2.2662560673411131e-01  -1.8058304013737930e-01  -1.3735384757636177e-01  -1.0156915056870158e-01  -7.5717311752251451e-02  -6.0216536951603679e-02  -5.4065020664101598e-02  -5.5592651066519463e-02  -6.3002297261799289e-02  -7.4617435118756112e-02  -8.8897742230788418e-02  -1.0433915588340059e-01  -1.1938529974401219e-01  -1.3245287675938705e-01  -1.4209478139058807e-01  -1.4722142173203109e-01  -1.4726120827885977e-01  -1.4218888024138718e-01  -1.3241456901044096e-01  -1.1857497207049332e-01  -1.0130929469273171e-01  -8.1105001147610961e-02  -5.8320711499613993e-02  -3.2529648244694113e-02  -7.3812866428591417e-03  -1.0770665199857553e-02  -4.5101410656056898e-02  -8.3040060410292313e-02  -1.1703857958549690e