<?xml version="1.0"?>
<VTKFile type="UnstructuredGrid"  version="0.1"  >
<UnstructuredGrid>
<Piece  NumberOfPoints="5101" NumberOfCells="10000">
<Points>
<DataArray  type="Float64"  NumberOfComponents="3"  format="ascii">0 0 0  0.2 0 0  0.4 0 0  0.6 0 0  0.8 0 0  1 0 0  1.2 0 0  1.4 0 0  1.6 0 0  1.8 0 0  2 0 0  2.2 0 0  2.4 0 0  2.6 0 0  2.8 0 0  3 0 0  3.2 0 0  3.4 0 0  3.6 0 0  3.8 0 0  4 0 0  4.2 0 0  4.4 0 0  4.6 0 0  4.8 0 0  5 0 0  5.2 0 0  5.4 0 0  5.6 0 0  5.8 0 0  6 0 0  6.2 0 0  6.4 0 0  6.6 0 0  6.8 0 0  7 0 0  7.2 0 0  7.4 0 0  7.6 0 0  7.8 0 0  8 0 0  8.199999999999999 0 0  8.4 0 0  8.6 0 0  8.800000000000001 0 0  9 0 0  9.199999999999999 0 0  9.4 0 0  9.6 0 0  9.800000000000001 0 0  10 0 0  0 0.2 0  0.2 0.2 0  0.4 0.2 0  0.6 0.2 0  0.8 0.2 0  1 0.2 0  1.2 0.2 0  1.4 0.2 0  1.6 0.2 0  1.8 0.2 0  2 0.2 0  2.2 0.2 0  2.4 0.2 0  2.6 0.2 0  2.8 0.2 0  3 0.2 0  3.2 0.2 0  3.4 0.2 0  3.6 0.2 0  3.8 0.2 0  4 0.2 0  4.2 0.2 0  4.4 0.2 0  4.6 0.2 0  4.8 0.2 0  5 0.2 0  5.2 0.2 0  5.4 0.2 0  5.6 0.2 0  5.8 0.2 0  6 0.2 0  6.2 0.2 0  6.4 0.2 0  6.6 0.2 0  6.8 0.2 0  7 0.2 0  7.2 0.2 0  7.4 0.2 0  7.6 0.2 0  7.8 0.2 0  8 0.2 0  8.199999999999999 0.2 0  8.4 0.2 0  8.6 0.2 0  8.800000000000001 0.2 0  9 0.2 0  9.199999999999999 0.2 0  9.4 0.2 0  9.6 0.2 0  9.800000000000001 0.2 0  10 0.2 0  0 0.4 0  0.2 0.4 0  0.4 0.4 0  0.6 0.4 0  0.8 0.4 0  1 0.4 0  1.2 0.4 0  1.4 0.4 0  1.6 0.4 0  1.8 0.4 0  2 0.4 0  2.2 0.4 0  2.4 0.4 0  2.6 0.4 0  2.8 0.4 0  3 0.4 0  3.2 0.4 0  3.4 0.4 0  3.6 0.4 0  3.8 0.4 0  4 0.4 0  4.2 0.4 0  4.4 0.4 0  4.6 0.4 0  4.8 0.4 0  5 0.4 0  5.2 0.4 0  5.4 0.4 0  5.6 0.4 0  5.8 0.4 0  6 0.4 0  6.2 0.4 0  6.4 0.4 0  6.6 0.4 0  6.8 0.4 0  7 0.4 0  7.2 0.4 0  7.4 0.4 0  7.6 0.4 0  7.8 0.4 0  8 0.4 0  8.199999999999999 0.4 0  8.4 0.4 0  8.6 0.4 0  8.800000000000001 0.4 0  9 0.4 0  9.199999999999999 0.4 0  9.4 0.4 0  9.6 0.4 0  9.800000000000001 0.4 0  10 0.4 0  0 0.6 0  0.2 0.6 0  0.4 0.6 0  0.6 0.6 0  0.8 0.6 0  1 0.6 0  1.2 0.6 0  1.4 0.6 0  1.6 0.6 0  1.8 0.6 0  2 0.6 0  2.2 0.6 0  2.4 0.6 0  2.6 0.6 0  2.8 0.6 0  3 0.6 0  3.2 0.6 0  3.4 0.6 0  3.6 0.6 0  3.8 0.6 0  4 0.6 0  4.2 0.6 0  4.4 0.6 0  4.6 0.6 0  4.8 0.6 0  5 0.6 0  5.2 0.6 0  5.4 0.6 0  5.6 0.6 0  5.8 0.6 0  6 0.6 0  6.2 0.6 0  6.4 0.6 0  6.6 0.6 0  6.8 0.6 0  7 0.6 0  7.2 0.6 0  7.4 0.6 0  7.6 0.6 0  7.8 0.6 0  8 0.6 0  8.199999999999999 0.6 0  8.4 0.6 0  8.6 0.6 0  8.800000000000001 0.6 0  9 0.6 0  9.199999999999999 0.6 0  9.4 0.6 0  9.6 0.6 0  9.800000000000001 0.6 0  10 0.6 0  0 0.8 0  0.2 0.8 0  0.4 0.8 0  0.6 0.8 0  0.8 0.8 0  1 0.8 0  1.2 0.8 0  1.4 0.8 0  1.6 0.8 0  1.8 0.8 0  2 0.8 0  2.2 0.8 0  2.4 0.8 0  2.6 0.8 0  2.8 0.8 0  3 0.8 0  3.2 0.8 0  3.4 0.8 0  3.6 0.8 0  3.8 0.8 0  4 0.8 0  4.2 0.8 0  4.4 0.8 0  4.6 0.8 0  4.8 0.8 0  5 0.8 0  5.2 0.8 0  5.4 0.8 0  5.6 0.8 0  5.8 0.8 0  6 0.8 0  6.2 0.8 0  6.4 0.8 0  6.6 0.8 0  6.8 0.8 0  7 0.8 0  7.2 0.8 0  7.4 0.8 0  7.6 0.8 0  7.8 0.8 0  8 0.8 0  8.199999999999999 0.8 0  8.4 0.8 0  8.6 0.8 0  8.800000000000001 0.8 0  9 0.8 0  9.199999999999999 0.8 0  9.4 0.8 0  9.6 0.8 0  9.800000000000001 0.8 0  10 0.8 0  0 1 0  0.2 1 0  0.4 1 0  0.6 1 0  0.8 1 0  1 1 0  1.2 1 0  1.4 1 0  1.6 1 0  1.8 1 0  2 1 0  2.2 1 0  2.4 1 0  2.6 1 0  2.8 1 0  3 1 0  3.2 1 0  3.4 1 0  3.6 1 0  3.8 1 0  4 1 0  4.2 1 0  4.4 1 0  4.6 1 0  4.8 1 0  5 1 0  5.2 1 0  5.4 1 0  5.6 1 0  5.8 1 0  6 1 0  6.2 1 0  6.4 1 0  6.6 1 0  6.8 1 0  7 1 0  7.2 1 0  7.4 1 0  7.6 1 0  7.8 1 0  8 1 0  8.199999999999999 1 0  8.4 1 0  8.6 1 0  8.800000000000001 1 0  9 1 0  9.199999999999999 1 0  9.4 1 0  9.6 1 0  9.800000000000001 1 0  10 1 0  0 1.2 0  0.2 1.2 0  0.4 1.2 0  0.6 1.2 0  0.8 1.2 0  1 1.2 0  1.2 1.2 0  1.4 1.2 0  1.6 1.2 0  1.8 1.2 0  2 1.2 0  2.2 1.2 0  2.4 1.2 0  2.6 1.2 0  2.8 1.2 0  3 1.2 0  3.2 1.2 0  3.4 1.2 0  3.6 1.2 0  3.8 1.2 0  4 1.2 0  4.2 1.2 0  4.4 1.2 0  4.6 1.2 0  4.8 1.2 0  5 1.2 0  5.2 1.2 0  5.4 1.2 0  5.6 1.2 0  5.8 1.2 0  6 1.2 0  6.2 1.2 0  6.4 1.2 0  6.6 1.2 0  6.8 1.2 0  7 1.2 0  7.2 1.2 0  7.4 1.2 0  7.6 1.2 0  7.8 1.2 0  8 1.2 0  8.199999999999999 1.2 0  8.4 1.2 0  8.6 1.2 0  8.800000000000001 1.2 0  9 1.2 0  9.199999999999999 1.2 0  9.4 1.2 0  9.6 1.2 0  9.800000000000001 1.2 0  10 1.2 0  0 1.4 0  0.2 1.4 0  0.4 1.4 0  0.6 1.4 0  0.8 1.4 0  1 1.4 0  1.2 1.4 0  1.4 1.4 0  1.6 1.4 0  1.8 1.4 0  2 1.4 0  2.2 1.4 0  2.4 1.4 0  2.6 1.4 0  2.8 1.4 0  3 1.4 0  3.2 1.4 0  3.4 1.4 0  3.6 1.4 0  3.8 1.4 0  4 1.4 0  4.2 1.4 0  4.4 1.4 0  4.6 1.4 0  4.8 1.4 0  5 1.4 0  5.2 1.4 0  5.4 1.4 0  5.6 1.4 0  5.8 1.4 0  6 1.4 0  6.2 1.4 0  6.4 1.4 0  6.6 1.4 0  6.8 1.4 0  7 1.4 0  7.2 1.4 0  7.4 1.4 0  7.6 1.4 0  7.8 1.4 0  8 1.4 0  8.199999999999999 1.4 0  8.4 1.4 0  8.6 1.4 0  8.800000000000001 1.4 0  9 1.4 0  9.199999999999999 1.4 0  9.4 1.4 0  9.6 1.4 0  9.800000000000001 1.4 0  10 1.4 0  0 1.6 0  0.2 1.6 0  0.4 1.6 0  0.6 1.6 0  0.8 1.6 0  1 1.6 0  1.2 1.6 0  1.4 1.6 0  1.6 1.6 0  1.8 1.6 0  2 1.6 0  2.2 1.6 0  2.4 1.6 0  2.6 1.6 0  2.8 1.6 0  3 1.6 0  3.2 1.6 0  3.4 1.6 0  3.6 1.6 0  3.8 1.6 0  4 1.6 0  4.2 1.6 0  4.4 1.6 0  4.6 1.6 0  4.8 1.6 0  5 1.6 0  5.2 1.6 0  5.4 1.6 0  5.6 1.6 0  5.8 1.6 0  6 1.6 0  6.2 1.6 0  6.4 1.6 0  6.6 1.6 0  6.8 1.6 0  7 1.6 0  7.2 1.6 0  7.4 1.6 0  7.6 1.6 0  7.8 1.6 0  8 1.6 0  8.199999999999999 1.6 0  8.4 1.6 0  8.6 1.6 0  8.800000000000001 1.6 0  9 1.6 0  9.199999999999999 1.6 0  9.4 1.6 0  9.6 1.6 0  9.800000000000001 1.6 0  10 1.6 0  0 1.8 0  0.2 1.8 0  0.4 1.8 0  0.6 1.8 0  0.8 1.8 0  1 1.8 0  1.2 1.8 0  1.4 1.8 0  1.6 1.8 0  1.8 1.8 0  2 1.8 0  2.2 1.8 0  2.4 1.8 0  2.6 1.8 0  2.8 1.8 0  3 1.8 0  3.2 1.8 0  3.4 1.8 0  3.6 1.8 0  3.8 1.8 0  4 1.8 0  4.2 1.8 0  4.4 1.8 0  4.6 1.8 0  4.8 1.8 0  5 1.8 0  5.2 1.8 0  5.4 1.8 0  5.6 1.8 0  5.8 1.8 0  6 1.8 0  6.2 1.8 0  6.4 1.8 0  6.6 1.8 0  6.8 1.8 0  7 1.8 0  7.2 1.8 0  7.4 1.8 0  7.6 1.8 0  7.8 1.8 0  8 1.8 0  8.199999999999999 1.8 0  8.4 1.8 0  8.6 1.8 0  8.800000000000001 1.8 0  9 1.8 0  9.199999999999999 1.8 0  9.4 1.8 0  9.6 1.8 0  9.800000000000001 1.8 0  10 1.8 0  0 2 0  0.2 2 0  0.4 2 0  0.6 2 0  0.8 2 0  1 2 0  1.2 2 0  1.4 2 0  1.6 2 0  1.8 2 0  2 2 0  2.2 2 0  2.4 2 0  2.6 2 0  2.8 2 0  3 2 0  3.2 2 0  3.4 2 0  3.6 2 0  3.8 2 0  4 2 0  4.2 2 0  4.4 2 0  4.6 2 0  4.8 2 0  5 2 0  5.2 2 0  5.4 2 0  5.6 2 0  5.8 2 0  6 2 0  6.2 2 0  6.4 2 0  6.6 2 0  6.8 2 0  7 2 0  7.2 2 0  7.4 2 0  7.6 2 0  7.8 2 0  8 2 0  8.199999999999999 2 0  8.4 2 0  8.6 2 0  8.800000000000001 2 0  9 2 0  9.199999999999999 2 0  9.4 2 0  9.6 2 0  9.800000000000001 2 0  10 2 0  0 2.2 0  0.2 2.2 0  0.4 2.2 0  0.6 2.2 0  0.8 2.2 0  1 2.2 0  1.2 2.2 0  1.4 2.2 0  1.6 2.2 0  1.8 2.2 0  2 2.2 0  2.2 2.2 0  2.4 2.2 0  2.6 2.2 0  2.8 2.2 0  3 2.2 0  3.2 2.2 0  3.4 2.2 0  3.6 2.2 0  3.8 2.2 0  4 2.2 0  4.2 2.2 0  4.4 2.2 0  4.6 2.2 0  4.8 2.2 0  5 2.2 0  5.2 2.2 0  5.4 2.2 0  5.6 2.2 0  5.8 2.2 0  6 2.2 0  6.2 2.2 0  6.4 2.2 0  6.6 2.2 0  6.8 2.2 0  7 2.2 0  7.2 2.2 0  7.4 2.2 0  7.6 2.2 0  7.8 2.2 0  8 2.2 0  8.199999999999999 2.2 0  8.4 2.2 0  8.6 2.2 0  8.800000000000001 2.2 0  9 2.2 0  9.199999999999999 2.2 0  9.4 2.2 0  9.6 2.2 0  9.800000000000001 2.2 0  10 2.2 0  0 2.4 0  0.2 2.4 0  0.4 2.4 0  0.6 2.4 0  0.8 2.4 0  1 2.4 0  1.2 2.4 0  1.4 2.4 0  1.6 2.4 0  1.8 2.4 0  2 2.4 0  2.2 2.4 0  2.4 2.4 0  2.6 2.4 0  2.8 2.4 0  3 2.4 0  3.2 2.4 0  3.4 2.4 0  3.6 2.4 0  3.8 2.4 0  4 2.4 0  4.2 2.4 0  4.4 2.4 0  4.6 2.4 0  4.8 2.4 0  5 2.4 0  5.2 2.4 0  5.4 2.4 0  5.6 2.4 0  5.8 2.4 0  6 2.4 0  6.2 2.4 0  6.4 2.4 0  6.6 2.4 0  6.8 2.4 0  7 2.4 0  7.2 2.4 0  7.4 2.4 0  7.6 2.4 0  7.8 2.4 0  8 2.4 0  8.199999999999999 2.4 0  8.4 2.4 0  8.6 2.4 0  8.800000000000001 2.4 0  9 2.4 0  9.199999999999999 2.4 0  9.4 2.4 0  9.6 2.4 0  9.800000000000001 2.4 0  10 2.4 0  0 2.6 0  0.2 2.6 0  0.4 2.6 0  0.6 2.6 0  0.8 2.6 0  1 2.6 0  1.2 2.6 0  1.4 2.6 0  1.6 2.6 0  1.8 2.6 0  2 2.6 0  2.2 2.6 0  2.4 2.6 0  2.6 2.6 0  2.8 2.6 0  3 2.6 0  3.2 2.6 0  3.4 2.6 0  3.6 2.6 0  3.8 2.6 0  4 2.6 0  4.2 2.6 0  4.4 2.6 0  4.6 2.6 0  4.8 2.6 0  5 2.6 0  5.2 2.6 0  5.4 2.6 0  5.6 2.6 0  5.8 2.6 0  6 2.6 0  6.2 2.6 0  6.4 2.6 0  6.6 2.6 0  6.8 2.6 0  7 2.6 0  7.2 2.6 0  7.4 2.6 0  7.6 2.6 0  7.8 2.6 0  8 2.6 0  8.199999999999999 2.6 0  8.4 2.6 0  8.6 2.6 0  8.800000000000001 2.6 0  9 2.6 0  9.199999999999999 2.6 0  9.4 2.6 0  9.6 2.6 0  9.800000000000001 2.6 0  10 2.6 0  0 2.8 0  0.2 2.8 0  0.4 2.8 0  0.6 2.8 0  0.8 2.8 0  1 2.8 0  1.2 2.8 0  1.4 2.8 0  1.6 2.8 0  1.8 2.8 0  2 2.8 0  2.2 2.8 0  2.4 2.8 0  2.6 2.8 0  2.8 2.8 0  3 2.8 0  3.2 2.8 0  3.4 2.8 0  3.6 2.8 0  3.8 2.8 0  4 2.8 0  4.2 2.8 0  4.4 2.8 0  4.6 2.8 0  4.8 2.8 0  5 2.8 0  5.2 2.8 0  5.4 2.8 0  5.6 2.8 0  5.8 2.8 0  6 2.8 0  6.2 2.8 0  6.4 2.8 0  6.6 2.8 0  6.8 2.8 0  7 2.8 0  7.2 2.8 0  7.4 2.8 0  7.6 2.8 0  7.8 2.8 0  8 2.8 0  8.199999999999999 2.8 0  8.4 2.8 0  8.6 2.8 0  8.800000000000001 2.8 0  9 2.8 0  9.199999999999999 2.8 0  9.4 2.8 0  9.6 2.8 0  9.800000000000001 2.8 0  10 2.8 0  0 3 0  0.2 3 0  0.4 3 0  0.6 3 0  0.8 3 0  1 3 0  1.2 3 0  1.4 3 0  1.6 3 0  1.8 3 0  2 3 0  2.2 3 0  2.4 3 0  2.6 3 0  2.8 3 0  3 3 0  3.2 3 0  3.4 3 0  3.6 3 0  3.8 3 0  4 3 0  4.2 3 0  4.4 3 0  4.6 3 0  4.8 3 0  5 3 0  5.2 3 0  5.4 3 0  5.6 3 0  5.8 3 0  6 3 0  6.2 3 0  6.4 3 0  6.6 3 0  6.8 3 0  7 3 0  7.2 3 0  7.4 3 0  7.6 3 0  7.8 3 0  8 3 0  8.199999999999999 3 0  8.4 3 0  8.6 3 0  8.800000000000001 3 0  9 3 0  9.199999999999999 3 0  9.4 3 0  9.6 3 0  9.800000000000001 3 0  10 3 0  0 3.2 0  0.2 3.2 0  0.4 3.2 0  0.6 3.2 0  0.8 3.2 0  1 3.2 0  1.2 3.2 0  1.4 3.2 0  1.6 3.2 0  1.8 3.2 0  2 3.2 0  2.2 3.2 0  2.4 3.2 0  2.6 3.2 0  2.8 3.2 0  3 3.2 0  3.2 3.2 0  3.4 3.2 0  3.6 3.2 0  3.8 3.2 0  4 3.2 0  4.2 3.2 0  4.4 3.2 0  4.6 3.2 0  4.8 3.2 0  5 3.2 0  5.2 3.2 0  5.4 3.2 0  5.6 3.2 0  5.8 3.2 0  6 3.2 0  6.2 3.2 0  6.4 3.2 0  6.6 3.2 0  6.8 3.2 0  7 3.2 0  7.2 3.2 0  7.4 3.2 0  7.6 3.2 0  7.8 3.2 0  8 3.2 0  8.199999999999999 3.2 0  8.4 3.2 0  8.6 3.2 0  8.800000000000001 3.2 0  9 3.2 0  9.199999999999999 3.2 0  9.4 3.2 0  9.6 3.2 0  9.800000000000001 3.2 0  10 3.2 0  0 3.4 0  0.2 3.4 0  0.4 3.4 0  0.6 3.4 0  0.8 3.4 0  1 
[...]
<PointData  Scalars="f_5"> 
<DataArray  type="Float64"  Name="f_5"  format="ascii">1.8724485936595203e-02  1.4508142690539416e-01  2.0953215832860769e-01  2.4908892122517604e-01  2.7502983650436541e-01  2.9206663036907299e-01  3.0296676354048097e-01  3.0944053073680472e-01  3.1262985058986481e-01  3.1333425469478010e-01  3.1213959505779876e-01  3.0949493383523669e-01  3.0576051276894439e-01  3.0123852768242171e-01  2.9619299891284850e-01  2.9086231660400302e-01  2.8546658519585311e-01  2.8021109960120211e-01  2.7528687116981826e-01  2.7086893089697689e-01  2.6711307688067276e-01  2.6415173670766406e-01  2.6208963122886642e-01  2.6099991275616868e-01  2.6092137946134475e-01  2.6185722651823973e-01  2.6377559004163198e-01  2.6661189662416218e-01  2.7027278580455300e-01  2.7464116447387205e-01  2.7958181292371198e-01  2.8494690817854385e-01  2.9058085834900660e-01  2.9632393122090278e-01  3.0201427834106398e-01  3.0748806475872853e-01  3.1257747744885994e-01  3.1710636833402200e-01  3.2088315662303574e-01  3.2369032607178910e-01  3.2526933321675588e-01  3.2529885512616852e-01  3.2336277430379101e-01  3.1890153308597696e-01  3.1113502312953056e-01  2.9893399082040978e-01  2.8059434598909921e-01  2.5334881795596503e-01  2.1247969343136999e-01  1.4669353282704667e-01  1.9014290646704023e-02  7.9443883049745891e-03  8.2131419599283079e-02  1.3205833077926099e-01  1.6771063402943578e-01  1.9123508869555247e-01  2.0698280043427125e-01  2.1703184862269170e-01  2.2291685474969039e-01  2.2567206193947803e-01  2.2603819136761391e-01  2.2456667819183621e-01  2.2168511458163087e-01  2.1774002714160851e-01  2.1302486931961173e-01  2.0779835246943523e-01  2.0229609932730347e-01  1.9673742628571037e-01  1.9132841144975421e-01  1.8626206480174212e-01  1.8171627081084982e-01  1.7785014587673023e-01  1.7479948348900937e-01  1.7267199794705726e-01  1.7154307974854532e-01  1.7145271091286093e-01  1.7240404248557445e-01  1.7436391643394619e-01  1.7726534788499998e-01  1.8101171335693084e-01  1.8548216198936976e-01  1.9053761673357020e-01  1.9602667946267041e-01  2.0179079384415843e-01  2.0766812818991737e-01  2.1349577997342428e-01  2.1911003278111074e-01  2.2434447663568921e-01  2.2902580126885885e-01  2.3296695980278626e-01  2.3595714334888196e-01  2.3774755176384726e-01  2.3803119516850549e-01  2.3641370517631000e-01  2.3236994249705814e-01  2.2517840427978580e-01  2.1381716552152064e-01  1.9675741530862081e-01  1.7192082002128162e-01  1.3495095768604717e-01  8.3685323169504292e-02  8.1420926369142176e-03  3.1184946334628693e-03  4.7204635779417019e-02  8.1793851941438248e-02  1.0833097767422513e-01  1.2717977004653649e-01  1.3997012156435007e-01  1.4809693470174298e-01  1.5263071454665653e-01  1.5437821527510981e-01  1.5395005526934641e-01  1.5181911245312241e-01  1.4836408107528920e-01  1.4390051408041063e-01  1.3870259219234146e-01  1.3301800697488297e-01  1.2707759973880431e-01  1.2110085176207096e-01  1.1529797245065557e-01  1.0986915772917137e-01  1.0500155269970191e-01  1.0086450854205230e-01  9.7603827347936878e-02  9.5335789212026054e-02  9.4141802907463115e-02  9.4064473835102899e-02  9.5105720060424767e-02  9.7227297253278958e-02  1.0035375427348663e-01  1.0437749287005441e-01  1.0916531316438759e-01  1.1456564401817282e-01  1.2041560912901472e-01  1.2654715763043792e-01  1.3279165570173260e-01  1.3898254091124598e-01  1.4495582989284223e-01  1.5054839822604305e-01  1.5559398918631945e-01  1.5991683821986474e-01  1.6332261191519160e-01  1.6558604160301682e-01  1.6643416360243546e-01  1.6552344650586734e-01  1.6240828970409960e-01  1.5649750338164509e-01  1.4699630116801762e-01  1.3283928806077025e-01  1.1263033651219974e-01  8.4734961937050240e-02  4.8768495139446845e-02  3.3221452272209112e-03  1.4904522826551378e-03  2.6145430245598490e-02  4.7503156410505877e-02  6.5315752394786486e-02  7.8505881075555520e-02  8.7578408465208465e-02  9.3136936986004656e-02  9.5810658888265093e-02  9.6140041243114635e-02  9.4573113764025149e-02  9.1480661132331109e-02  8.7175814277916389e-02  8.1931939885849306e-02  7.5997003830117607e-02  6.9604210856896637e-02  6.2979120148112730e-02  5.6343476864265871e-02  4.9915973830922222e-02  4.3910177127749389e-02  3.8529951554042860e-02  3.3962902256128566e-02  3.0372573064162571e-02  2.7890353685878447e-02  2.6608178637505742e-02  2.6573088070542667e-02  2.7784528360218674e-02  3.0194906179130142e-02  3.3713430844619828e-02  3.8212780812639950e-02  4.3537717107400419e-02  4.9514523547015417e-02  5.5960118332433827e-02  6.2689836261451096e-02  6.9523163466142790e-02  7.6287034123779046e-02  8.2816592535956912e-02  8.8953528577557076e-02  9.4542183795461587e-02  9.9423600286206504e-02  1.0342756547785800e-01  1.0636252914923190e-01  1.0800309416623706e-01  1.0807472798758926e-01  1.0623569366391383e-01  1.0205782023132388e-01  9.5012027261222418e-02  8.4472961199668906e-02  6.9834277545550189e-02  5.0584368806539243e-02  2.7780579318004598e-02  1.7018514208119011e-03  2.2594504304433545e-04  1.2251046404906044e-02  2.3665748639372489e-02  3.3881138516929761e-02  4.1665033576734539e-02  4.6864080225263852e-02  4.9600669338949625e-02  5.0147378676160322e-02  4.8804989514117270e-02  4.5861472578726019e-02  4.1580421444541583e-02  3.6203091242549723e-02  2.9955350782282376e-02  2.3055462744299444e-02  1.5720820926426852e-02  8.1727075813887023e-03  6.3852828665030698e-04  -6.6488205189003920e-03  -1.3454617035980419e-02  -1.9548931837236924e-02  -2.4715779284315748e-02  -2.8763983078078929e-02  -3.1538545477489036e-02  -3.2931032863149433e-02  -3.2887433693999636e-02  -3.1412178558863676e-02  -2.8567534410401208e-02  -2.4468307686711946e-02  -1.9272555456849340e-02  -1.3169629243859450e-02  -6.3672198766624244e-03  9.2092488236368542e-04  8.4852360715589135e-03  1.6127624871639830e-02  2.3665494932180686e-02  3.0932568354278534e-02  3.7776934764593033e-02  4.4056870057869818e-02  4.9634965900386824e-02  5.4371020823466273e-02  5.8114048438597236e-02  6.0693768039408194e-02  6.1912235195520610e-02  6.1537172361755071e-02  5.9300793732703708e-02  5.4912571447108573e-02  4.8101591446737285e-02  3.8739919085315114e-02  2.6970691306780002e-02  1.4003202666724876e-02  4.4883866429469132e-04  -6.2932389779566213e-04  2.5691332024699149e-03  6.5743864560548022e-03  1.0675400865012296e-02  1.3724667346518896e-02  1.5301679222019722e-02  1.5252930699208104e-02  1.3608076905037641e-02  1.0480833135711458e-02  6.0214752148756798e-03  3.9450066041552212e-04  -6.2288924599277849e-03  -1.3670773161963917e-02  -2.1743177282756418e-02  -3.0244059400289451e-02  -3.8954110654694001e-02  -4.7635602276664031e-02  -5.6034145691884293e-02  -6.3883995629015519e-02  -7.0917150867094478e-02  -7.6875981430663418e-02  -8.1528457459326700e-02  -8.4684378073253075e-02  -8.6210467146062661e-02  -8.6042006685345979e-02  -8.4188958754291096e-02  -8.0735304409110184e-02  -7.5831464954741856e-02  -6.9680894241010538e-02  -6.2522921025893907e-02  -5.4614426660420573e-02  -4.6212872518893923e-02  -3.7562629666404453e-02  -2.8885723467288908e-02  -2.0377236970136391e-02  -1.2204917473601175e-02  -4.5121018092915948e-03  2.5770808015558853e-03  8.9512240219077801e-03  1.4504732745663039e-02  1.9131223316135867e-02  2.2718013743640686e-02  2.5142839626950683e-02  2.6274839425573730e-02  2.5983682328750219e-02  2.4163778576656740e-02  2.0783664653905819e-02  1.5986983657338163e-02  1.0178608983231040e-02  4.4787352969332221e-03  -3.9078003650707506e-04  -1.2634894580857649e-03  -4.3868126732175723e-03  -5.9022978450615346e-03  -6.6121436555499711e-03  -7.5119798579750558e-03  -9.1273958634398716e-03  -1.1754620018544621e-02  -1.5517664474808972e-02  -2.0437709341912573e-02  -2.6474154803606931e-02  -3.3547791574698817e-02  -4.1551434348558181e-02  -5.0352843014409412e-02  -5.9793409537143793e-02  -6.9685103263653514e-02  -7.9807601430368524e-02  -8.9907242666264778e-02  -9.9699255114492624e-02  -1.0887445850344128e-01  -1.1711118124247195e-01  -1.2409238831438157e-01  -1.2952700043738480e-01  -1.3317324786366252e-01  -1.3486092094099419e-01  -1.3450889911171462e-01  -1.3213464814888345e-01  -1.2785355637381970e-01  -1.2186782168672795e-01  -1.1444662276341946e-01  -1.0590092813560333e-01  -9.6557062520842618e-02  -8.6732911792371595e-02  -7.6719595109017935e-02  -6.6769976129237629e-02  -5.7093971553802615e-02  -4.7859567294033435e-02  -3.9197898979852576e-02  -3.1210648423545283e-02  -2.3978200399080846e-02  -1.7567312559132148e-02  -1.2037309205431545e-02  -7.4438807828522725e-03  -3.8393403294813082e-03  -1.2675514747332167e-03  2.4938164410436963e-04  7.3707082876146434e-04  3.1248382075243488e-04  -7.4418595215562948e-04  -1.9303782797054257e-03  -2.2838072775416924e-03  -1.0059111048884351e-03  -1.7438034613155469e-03  -9.4657459980253180e-03  -1.5104076269709960e-02  -1.9548175121924305e-02  -2.3654460054023593e-02  -2.7983287051664179e-02  -3.2901679390455789e-02  -3.8628116956487338e-02  -4.5278131108066118e-02  -5.2895871959578386e-02  -6.1473607710189310e-02  -7.0961489972734298e-02  -8.1270377545270903e-02  -9.2270188760655639e-02  -1.0378595867920838e-01  -1.1559364467609695e-01  -1.2741774116412874e-01  -1.3893280667864757e-01  -1.4977089178674852e-01  -1.5953638397129019e-01  -1.6782879821059080e-01  -1.7427251151650214e-01  -1.7855055745533641e-01  -1.8043781094240777e-01  -1.7982783202645500e-01  -1.7674788726950533e-01  -1.7135847597769502e-01  -1.6393673912005580e-01  -1.5484656100773936e-01  -1.4450090073112187e-01  -1.3332306901692156e-01  -1.2171305845758051e-01  -1.1002305652961154e-01  -9.8543728702639277e-02  -8.7500563944055851e-02  -7.7058045070540537e-02  -6.7328774715958939e-02  -5.8384786909457760e-02  -5.0268796866519125e-02  -4.3003780699154844e-02  -3.6599803174710795e-02  -3.1057290038261475e-02  -2.6365913077397371e-02  -2.2497922856455577e-02  -1.9394210103885607e-02  -1.6940809671596932e-02  -1.4933859864241537e-02  -1.3030799418420143e-02  -1.0703910926818291e-02  -7.1378409135675093e-03  -1.4642765633698230e-03  -2.1156548833568180e-03  -1.3189247972409624e-02  -2.1895767329296385e-02  -2.9206520973092755e-02  -3.5866738606963815e-02  -4.2444319455344881e-02  -4.9341214486760092e-02  -5.6835082868334240e-02  -6.5108482871384377e-02  -7.4272010739417776e-02  -8.4378898318982126e-02  -9.5431951189983905e-02  -1.0738425923007772e-01  -1.2013527975710885e-01  -1.3352408474282113e-01  -1.4732185407383686e-01  -1.6122611826816596e-01  -1.7485968713047131e-01  -1.8777740945409108e-01  -1.9948357148223508e-01  -2.0946153634867934e-01  -2.1721498755115901e-01  -2.2231705784387096e-01  -2.2446039328704903e-01  -2.2349895326309963e-01  -2.1947227945030942e-01  -2.1260572984326484e-01  -2.0328533177609270e-01  -1.9201188919165529e-01  -1.7934369430772534e-01  -1.6583902870057921e-01  -1.5200821841840131e-01  -1.3828125577375461e-01  -1.2499252992620419e-01  -1.1238049969160123e-01  -1.0059799721227997e-01  -8.9728313964241219e-02  -7.9802835478002168e-02  -7.0817150263403419e-02  -6.2743753021458362e-02  -5.5540384100663420e-02  -4.9153577697596817e-02  -4.3517143295452559e-02  -3.8545170001278869e-02  -3.4118891528828001e-02  -3.0066546793500449e-02  -2.6135698886905506e-02  -2.1960020568572318e-02  -1.7016373855520732e-02  -1.0610212389659856e-02  -1.8118596171245447e-03  -2.4087239790049468e-03  -1.5894692114650638e-02  -2.6854322492741271e-02  -3.6331607329163851e-02  -4.4987112418157248e-02  -5.3387335862642486e-02  -6.1952694345975577e-02  -7.1000680073139352e-02  -8.0764498676365745e-02  -9.1409905225569271e-02  -1.0304522919564325e-01  -1.1572482640461935e-01  -1.2944650764138338e-01  -1.4414382410345897e-01  -1.5967458499269271e-01  -1.7580766210158150e-01  -1.9221105723641704e-01  -2.0844524643324605e-01  -2.2396665093225174e-01  -2.3814619430971190e-01  -2.5030664724826829e-01  -2.5977933003723536e-01  -2.6597577369893011e-01  -2.6846411720575886e-01  -2.6703534896345238e-01  -2.6174342875550727e-01  -2.5290747735223712e-01  -2.4107311072805554e-01  -2.2694070381046233e-01  -2.1127675253715203e-01  -1.9482737265916486e-01  -1.7824976167415815e-01  -1.6207024245750254e-01  -1.4666958531632396e-01  -1.3229037507642061e-01  -1.1905840041624413e-01  -1.0701006904249985e-01  -9.6119593940559370e-02  -8.6321994948704073e-02  -7.7530009617357676e-02  -6.9644434611079942e-02  -6.2558179388587806e-02  -5.6154541823660351e-02  -5.0300109755379019e-02  -4.4832487205683495e-02  -3.9542848135603215e-02  -3.4153345838588152e-02  -2.8293603000658848e-02  -2.1456824790626071e-02  -1.3044849398831656e-02  -2.0790558416693625e-03  -2.6432267788469963e-03  -1.7807932010560627e-02  -3.0373650122098222e-02  -4.1444674957846588e-02  -5.1618174957564884e-02  -6.1457347778677618e-02  -7.1394382699872125e-02  -8.1776946577941420e-02  -9.2880380026512444e-02  -1.0492032041314334e-01  -1.1805911638582905e-01  -1.3240591821436812e-01  -1.4801031551982011e-01  -1.6484969794585652e-01  -1.8281116665031899e-01  -2.0166984786763059e-01  -2.2106698043858791e-01  -2.4049308299714670e-01  -2.5928346521961176e-01  -2.7663452506705649e-01  -2.9164847302151009e-01  -3.0341009519111506e-01  -3.1109136532050785e-01  -3.1406929931474792e-01  -3.1203285881474785e-01  -3.0505091653491317e-01  -2.9357927173068532e-01  -2.7840031418568567e-01  -2.6050866755385793e-01  -2.4097150944124818e-01  -2.2079673158094165e-01  -2.0083489912399044e-01  -1.8172690502182526e-01  -1.6389509465799565e-01  -1.4756636496664416e-01  -1.3281267994787649e-01  -1.1959615652253192e-01  -1.0780989165702688e-01  -9.7309924152730307e-02  -8.7936982659595792e-02  -7.9528638738959281e-02  -7.1923336866375975e-02  -6.4957875293461365e-02  -5.8459620573245989e-02  -5.2234363770376754e-02  -4.6050340615058194e-02  -3.9618596667255777e-02  -3.2575142857510092e-02  -2.4434483032484591e-02  -1.4675802174742613e-02  -2.2869454587915198e-03  -2.8333467381093506e-03  -1.9083731676788934e-02  -3.2727098661900975e-02  -4.4913410255147168e-02  -5.6192287747320858e-02  -6.7123840064910983e-02  -7.8149814590480038e-02  -8.9643813478530870e-02  -1.0191991111901340e-01  -1.1524288755592253e-01  -1.2983227405786921e-01  -1.4585975944058818e-01  -1.6343914061013501e-01  -1.8260813157564681e-01  -2.0330199132223953e-01  -2.2532019770393055e-01  -2.4828957268410620e-01  -2.7163043791402952e-01  -2.9453620858941487e-01  -3.1598022450604957e-01  -3.3476451595322387e-01  -3.4962088882991915e-01  -3.5936304760887217e-01  -3.6307011307689707e-01  -3.6026236495737862e-01  -3.5101933704463251e-01  -3.3599814577217896e-01  -3.1633783331024701e-01  -2.9347303932051694e-01  -2.6890944020719465e-01  -2.4402018657595731e-01  -2.1990631474850791e-01  -1.9733619608792421e-01  -1.7675386883094443e-01  -1.5833226094977429e-01  -1.4204552076240792e-01  -1.2774055004727838e-01  -1.1519616665348624e-01  -1.0416556981870281e-01  -9.4402533836312350e-02  -8.5674078930488201e-02  -7.7762962451191270e-02  -7.0462965886878018e-02  -6.3569206544661930e-02  -5.6864967857126039e-02  -5.0105861094087496e-02  -4.3001458581243032e-02  -3.5200483957261865e-02  -2.6241664364837203e-02  -1.5667896727656051e-02  -2.4507385729785518e-03  -2.9891420465991280e-03  -1.9829994791211811e-02  -3.4106815836166225e-02  -4.6998836020408032e-02  -5.9019279703864107e-02  -7.0725272679060133e-02  -8.2567470559257741e-02  -9.4943760500444702e-02  -1.0820640697949724e-01  -1.2267152990687505e-01  -1.3862224818131602e-01  -1.5630461948753080e-01  -1.7591474104388799e-01  -1.9757515824223607e-01  -2.2129912049135289e-01  -2.4694248757004406e-01  -2.7414581767856944e-01  -3.0227385424121528e-01  -3.3036630099667791e-01  -3.5712129262935738e-01  -3.8093821242262588e-01  -4.0004416003722548e-01  -4.1271251097552253e-01  -4.1755053081085786e-01  -4.1379359391810278e-01  -4.0151587157347762e-01  -3.8167462774680178e-01  -3.5595590286217182e-01  -3.2646330629543135e-01  -2.9534894467122519e-01  -2.6449519522514947e-01  -2.3531878608742757e-01  -2.0871224624168122e-01  -1.8509301542975329e-01  -1.6451184489453455e-01  -1.4677616981536132e-01  -1.3155930637674135e-01  -1.1848230417364543e-01  -1.0716679457213360e-01  -9.7263292994235737e-02  -8.8461408327945565e-02  -8.0488030523478471e-02  -7.3098193433612124e-02  -6.6061779871393431e-02  -5.9147975866944348e-02  -5.2108360832387998e-02  -4.4658591131058703e-02  -3.6464969126653458e-02  -2.7093297325520630e-02  -1.6141023475246683e-02  -2.5816805617048431e-03  -3.1177185315689380e-03  -2.0123262342551962e-02  -3.4649868645300452e-02  -4.7888074772515749e-02  -6.0321909039676103e-02  -7.2504458223152948e-02  -8.4894507552137621e-02  -9.7913211520979510e-02  -1.1195145198846045e-01  -1.2738013087762579e-01  -1.4455415784069472e-01  -1.6380878112191996e-01  -1.8544566220233805e-01  -2.0970529559367618e-01  -2.3672212565975001e-01  -2.6645946239486407e-01  -2.9862408194437140e-01  -3.3256648068824546e-01  -3.6718318535925648e-01  -4.0085193613502407e-01  -4.3144515506397785e-01  -4.5647269763635806e-01  -4.7338762306265231e-01  -4.8003754277593302e-01  -4.7516572341117941e-01  -4.5879740939235603e-01  -4.3234355730852514e-01  -3.9834707489975152e-01  -3.5994808535936806e-01  -3.2026234969551814e-01  -2.8187837633199087e-01  -2.4659140778526420e-01  -2.1537653876252122e-01  -1.8852540825291231e-01  -1.6585186841741956e-01  -1.4689370429055712e-01  -1.3107177790400848e-01  -1.1779627965074393e-01  -1.0652613786062713e-01  -9.6793801902642196e-02  -8.8207643798798821e-02  -8.0441616436776470e-02  -7.3218692180171380e-02  -6.6291955592536644e-02  -5.9425342503825598e-02  -5.2374692845504639e-02  -4.4868715710463983e-02  -3.6595971783328816e-02  -2.7152802920672781e-02  -1.6185483270899113e-02  -2.6882040582672457e-03  -3.2239907959310692e-03  -2.0019236732685582e-02  -3.4456509260904426e-02  -4.7718235719936969e-02  -6.0263095977193676e-02  -7.2637375507365320e-02  -8.5306007954177171e-02  -9.8711566606039094e-02  -1.1328326159430954e-01  -1.2944961446653830e-01  -1.4764534880342262e-01  -1.6831070904430243e-01  -1.9187961152437630e-01  -2.1875138395965588e-01  -2.4923942142230057e-01  -2.8348944343537025e-01  -3.2136169527203112e-01  -3.6227781732527831e-01  -4.0504732891983897e-01  -4.4771303197527801e-01  -4.8748678983425270e-01  -5.2087401351628015e-01  -5.4407870480542231e-01  -5.5370628909280839e-01  -5.4762989072701673e-01  -5.2571910595623561e-01  -4.9008118915666626e-01  -4.4463498065347995e-01  -3.9416146728923090e-01  -3.4322822961876914e-01  -2.9538902756279434e-01  -2.5284882635785960e-01  -2.1654297254064089e-01  -1.8645103222566806e-01  -1.6196679723826671e-01  -1.4221286711894707e-01  -1.2625852445561359e-01  -1.1324483542232720e-01  -1.0243992845798192e-01  -9.3249706329523493e-02  -8.5204176172463536e-02  -7.7932932382151140e-02  -7.1137683328727830e-02  -6.4565747061323411e-02  -5.7986009880188864e-02  -5.1167374780037481e-02  -4.3858701161402627e-02  -3.5775775047419509e-02  -2.6549619381950693e-02  -1.5872100538035991e-02  -2.7766464531429826e-03  -3.3112045292713389e-03  -1.9560327927465211e-02  -3.3603594847040001e-02  -4.6594598975276860e-02  -5.8967627519087719e-02  -7.1257415113969963e-02  -8.3931137426632302e-02  -9.7448948196027924e-02  -1.1227580774389544e-01  -1.2889805324594572e-01  -1.4783548313094486e-01  -1.6964696996745907e-01  -1.9492524063409780e-01  -2.2427375729491472e-01  -2.5825543630050407e-01  -2.9729967369602189e-01  -3.4155255030682374e-01  -3.9065882513720507e-01  -4.4347972853816048e-01  -4.9778588719184758e-01  -5.5002494891549469e-01  -5.9533715845535906e-01  -6.2803182326425888e-01  -6.4265537286353003e-01  -6.3550445442740455e-01  -6.0604119320039285e-01  -5.5745908524945631e-01  -4.9595161871672588e-01  -4.2896080572065892e-01  -3.6325990339333758e-01  -3.0368035161998380e-01  -2.5276611155240819e-01  -2.1113193145203413e-01  -1.7811813571654378e-01  -1.5242266622386993e-01  -1.3256202253376656e-01  -1.1714240719873167e-01  -1.0498303854344014e-01  -9.5145679746454451e-02  -8.6914458610813067e-02  -7.9755025451218223e-02  -7.3269403979725090e-02  -6.715429