<?xml version="1.0"?>
<VTKFile type="UnstructuredGrid"  version="0.1"  >
<UnstructuredGrid>
<Piece  NumberOfPoints="5101" NumberOfCells="10000">
<Points>
<DataArray  type="Float64"  NumberOfComponents="3"  format="ascii">0 0 0  0.2 0 0  0.4 0 0  0.6 0 0  0.8 0 0  1 0 0  1.2 0 0  1.4 0 0  1.6 0 0  1.8 0 0  2 0 0  2.2 0 0  2.4 0 0  2.6 0 0  2.8 0 0  3 0 0  3.2 0 0  3.4 0 0  3.6 0 0  3.8 0 0  4 0 0  4.2 0 0  4.4 0 0  4.6 0 0  4.8 0 0  5 0 0  5.2 0 0  5.4 0 0  5.6 0 0  5.8 0 0  6 0 0  6.2 0 0  6.4 0 0  6.6 0 0  6.8 0 0  7 0 0  7.2 0 0  7.4 0 0  7.6 0 0  7.8 0 0  8 0 0  8.199999999999999 0 0  8.4 0 0  8.6 0 0  8.800000000000001 0 0  9 0 0  9.199999999999999 0 0  9.4 0 0  9.6 0 0  9.800000000000001 0 0  10 0 0  0 0.2 0  0.2 0.2 0  0.4 0.2 0  0.6 0.2 0  0.8 0.2 0  1 0.2 0  1.2 0.2 0  1.4 0.2 0  1.6 0.2 0  1.8 0.2 0  2 0.2 0  2.2 0.2 0  2.4 0.2 0  2.6 0.2 0  2.8 0.2 0  3 0.2 0  3.2 0.2 0  3.4 0.2 0  3.6 0.2 0  3.8 0.2 0  4 0.2 0  4.2 0.2 0  4.4 0.2 0  4.6 0.2 0  4.8 0.2 0  5 0.2 0  5.2 0.2 0  5.4 0.2 0  5.6 0.2 0  5.8 0.2 0  6 0.2 0  6.2 0.2 0  6.4 0.2 0  6.6 0.2 0  6.8 0.2 0  7 0.2 0  7.2 0.2 0  7.4 0.2 0  7.6 0.2 0  7.8 0.2 0  8 0.2 0  8.199999999999999 0.2 0  8.4 0.2 0  8.6 0.2 0  8.800000000000001 0.2 0  9 0.2 0  9.199999999999999 0.2 0  9.4 0.2 0  9.6 0.2 0  9.800000000000001 0.2 0  10 0.2 0  0 0.4 0  0.2 0.4 0  0.4 0.4 0  0.6 0.4 0  0.8 0.4 0  1 0.4 0  1.2 0.4 0  1.4 0.4 0  1.6 0.4 0  1.8 0.4 0  2 0.4 0  2.2 0.4 0  2.4 0.4 0  2.6 0.4 0  2.8 0.4 0  3 0.4 0  3.2 0.4 0  3.4 0.4 0  3.6 0.4 0  3.8 0.4 0  4 0.4 0  4.2 0.4 0  4.4 0.4 0  4.6 0.4 0  4.8 0.4 0  5 0.4 0  5.2 0.4 0  5.4 0.4 0  5.6 0.4 0  5.8 0.4 0  6 0.4 0  6.2 0.4 0  6.4 0.4 0  6.6 0.4 0  6.8 0.4 0  7 0.4 0  7.2 0.4 0  7.4 0.4 0  7.6 0.4 0  7.8 0.4 0  8 0.4 0  8.199999999999999 0.4 0  8.4 0.4 0  8.6 0.4 0  8.800000000000001 0.4 0  9 0.4 0  9.199999999999999 0.4 0  9.4 0.4 0  9.6 0.4 0  9.800000000000001 0.4 0  10 0.4 0  0 0.6 0  0.2 0.6 0  0.4 0.6 0  0.6 0.6 0  0.8 0.6 0  1 0.6 0  1.2 0.6 0  1.4 0.6 0  1.6 0.6 0  1.8 0.6 0  2 0.6 0  2.2 0.6 0  2.4 0.6 0  2.6 0.6 0  2.8 0.6 0  3 0.6 0  3.2 0.6 0  3.4 0.6 0  3.6 0.6 0  3.8 0.6 0  4 0.6 0  4.2 0.6 0  4.4 0.6 0  4.6 0.6 0  4.8 0.6 0  5 0.6 0  5.2 0.6 0  5.4 0.6 0  5.6 0.6 0  5.8 0.6 0  6 0.6 0  6.2 0.6 0  6.4 0.6 0  6.6 0.6 0  6.8 0.6 0  7 0.6 0  7.2 0.6 0  7.4 0.6 0  7.6 0.6 0  7.8 0.6 0  8 0.6 0  8.199999999999999 0.6 0  8.4 0.6 0  8.6 0.6 0  8.800000000000001 0.6 0  9 0.6 0  9.199999999999999 0.6 0  9.4 0.6 0  9.6 0.6 0  9.800000000000001 0.6 0  10 0.6 0  0 0.8 0  0.2 0.8 0  0.4 0.8 0  0.6 0.8 0  0.8 0.8 0  1 0.8 0  1.2 0.8 0  1.4 0.8 0  1.6 0.8 0  1.8 0.8 0  2 0.8 0  2.2 0.8 0  2.4 0.8 0  2.6 0.8 0  2.8 0.8 0  3 0.8 0  3.2 0.8 0  3.4 0.8 0  3.6 0.8 0  3.8 0.8 0  4 0.8 0  4.2 0.8 0  4.4 0.8 0  4.6 0.8 0  4.8 0.8 0  5 0.8 0  5.2 0.8 0  5.4 0.8 0  5.6 0.8 0  5.8 0.8 0  6 0.8 0  6.2 0.8 0  6.4 0.8 0  6.6 0.8 0  6.8 0.8 0  7 0.8 0  7.2 0.8 0  7.4 0.8 0  7.6 0.8 0  7.8 0.8 0  8 0.8 0  8.199999999999999 0.8 0  8.4 0.8 0  8.6 0.8 0  8.800000000000001 0.8 0  9 0.8 0  9.199999999999999 0.8 0  9.4 0.8 0  9.6 0.8 0  9.800000000000001 0.8 0  10 0.8 0  0 1 0  0.2 1 0  0.4 1 0  0.6 1 0  0.8 1 0  1 1 0  1.2 1 0  1.4 1 0  1.6 1 0  1.8 1 0  2 1 0  2.2 1 0  2.4 1 0  2.6 1 0  2.8 1 0  3 1 0  3.2 1 0  3.4 1 0  3.6 1 0  3.8 1 0  4 1 0  4.2 1 0  4.4 1 0  4.6 1 0  4.8 1 0  5 1 0  5.2 1 0  5.4 1 0  5.6 1 0  5.8 1 0  6 1 0  6.2 1 0  6.4 1 0  6.6 1 0  6.8 1 0  7 1 0  7.2 1 0  7.4 1 0  7.6 1 0  7.8 1 0  8 1 0  8.199999999999999 1 0  8.4 1 0  8.6 1 0  8.800000000000001 1 0  9 1 0  9.199999999999999 1 0  9.4 1 0  9.6 1 0  9.800000000000001 1 0  10 1 0  0 1.2 0  0.2 1.2 0  0.4 1.2 0  0.6 1.2 0  0.8 1.2 0  1 1.2 0  1.2 1.2 0  1.4 1.2 0  1.6 1.2 0  1.8 1.2 0  2 1.2 0  2.2 1.2 0  2.4 1.2 0  2.6 1.2 0  2.8 1.2 0  3 1.2 0  3.2 1.2 0  3.4 1.2 0  3.6 1.2 0  3.8 1.2 0  4 1.2 0  4.2 1.2 0  4.4 1.2 0  4.6 1.2 0  4.8 1.2 0  5 1.2 0  5.2 1.2 0  5.4 1.2 0  5.6 1.2 0  5.8 1.2 0  6 1.2 0  6.2 1.2 0  6.4 1.2 0  6.6 1.2 0  6.8 1.2 0  7 1.2 0  7.2 1.2 0  7.4 1.2 0  7.6 1.2 0  7.8 1.2 0  8 1.2 0  8.199999999999999 1.2 0  8.4 1.2 0  8.6 1.2 0  8.800000000000001 1.2 0  9 1.2 0  9.199999999999999 1.2 0  9.4 1.2 0  9.6 1.2 0  9.800000000000001 1.2 0  10 1.2 0  0 1.4 0  0.2 1.4 0  0.4 1.4 0  0.6 1.4 0  0.8 1.4 0  1 1.4 0  1.2 1.4 0  1.4 1.4 0  1.6 1.4 0  1.8 1.4 0  2 1.4 0  2.2 1.4 0  2.4 1.4 0  2.6 1.4 0  2.8 1.4 0  3 1.4 0  3.2 1.4 0  3.4 1.4 0  3.6 1.4 0  3.8 1.4 0  4 1.4 0  4.2 1.4 0  4.4 1.4 0  4.6 1.4 0  4.8 1.4 0  5 1.4 0  5.2 1.4 0  5.4 1.4 0  5.6 1.4 0  5.8 1.4 0  6 1.4 0  6.2 1.4 0  6.4 1.4 0  6.6 1.4 0  6.8 1.4 0  7 1.4 0  7.2 1.4 0  7.4 1.4 0  7.6 1.4 0  7.8 1.4 0  8 1.4 0  8.199999999999999 1.4 0  8.4 1.4 0  8.6 1.4 0  8.800000000000001 1.4 0  9 1.4 0  9.199999999999999 1.4 0  9.4 1.4 0  9.6 1.4 0  9.800000000000001 1.4 0  10 1.4 0  0 1.6 0  0.2 1.6 0  0.4 1.6 0  0.6 1.6 0  0.8 1.6 0  1 1.6 0  1.2 1.6 0  1.4 1.6 0  1.6 1.6 0  1.8 1.6 0  2 1.6 0  2.2 1.6 0  2.4 1.6 0  2.6 1.6 0  2.8 1.6 0  3 1.6 0  3.2 1.6 0  3.4 1.6 0  3.6 1.6 0  3.8 1.6 0  4 1.6 0  4.2 1.6 0  4.4 1.6 0  4.6 1.6 0  4.8 1.6 0  5 1.6 0  5.2 1.6 0  5.4 1.6 0  5.6 1.6 0  5.8 1.6 0  6 1.6 0  6.2 1.6 0  6.4 1.6 0  6.6 1.6 0  6.8 1.6 0  7 1.6 0  7.2 1.6 0  7.4 1.6 0  7.6 1.6 0  7.8 1.6 0  8 1.6 0  8.199999999999999 1.6 0  8.4 1.6 0  8.6 1.6 0  8.800000000000001 1.6 0  9 1.6 0  9.199999999999999 1.6 0  9.4 1.6 0  9.6 1.6 0  9.800000000000001 1.6 0  10 1.6 0  0 1.8 0  0.2 1.8 0  0.4 1.8 0  0.6 1.8 0  0.8 1.8 0  1 1.8 0  1.2 1.8 0  1.4 1.8 0  1.6 1.8 0  1.8 1.8 0  2 1.8 0  2.2 1.8 0  2.4 1.8 0  2.6 1.8 0  2.8 1.8 0  3 1.8 0  3.2 1.8 0  3.4 1.8 0  3.6 1.8 0  3.8 1.8 0  4 1.8 0  4.2 1.8 0  4.4 1.8 0  4.6 1.8 0  4.8 1.8 0  5 1.8 0  5.2 1.8 0  5.4 1.8 0  5.6 1.8 0  5.8 1.8 0  6 1.8 0  6.2 1.8 0  6.4 1.8 0  6.6 1.8 0  6.8 1.8 0  7 1.8 0  7.2 1.8 0  7.4 1.8 0  7.6 1.8 0  7.8 1.8 0  8 1.8 0  8.199999999999999 1.8 0  8.4 1.8 0  8.6 1.8 0  8.800000000000001 1.8 0  9 1.8 0  9.199999999999999 1.8 0  9.4 1.8 0  9.6 1.8 0  9.800000000000001 1.8 0  10 1.8 0  0 2 0  0.2 2 0  0.4 2 0  0.6 2 0  0.8 2 0  1 2 0  1.2 2 0  1.4 2 0  1.6 2 0  1.8 2 0  2 2 0  2.2 2 0  2.4 2 0  2.6 2 0  2.8 2 0  3 2 0  3.2 2 0  3.4 2 0  3.6 2 0  3.8 2 0  4 2 0  4.2 2 0  4.4 2 0  4.6 2 0  4.8 2 0  5 2 0  5.2 2 0  5.4 2 0  5.6 2 0  5.8 2 0  6 2 0  6.2 2 0  6.4 2 0  6.6 2 0  6.8 2 0  7 2 0  7.2 2 0  7.4 2 0  7.6 2 0  7.8 2 0  8 2 0  8.199999999999999 2 0  8.4 2 0  8.6 2 0  8.800000000000001 2 0  9 2 0  9.199999999999999 2 0  9.4 2 0  9.6 2 0  9.800000000000001 2 0  10 2 0  0 2.2 0  0.2 2.2 0  0.4 2.2 0  0.6 2.2 0  0.8 2.2 0  1 2.2 0  1.2 2.2 0  1.4 2.2 0  1.6 2.2 0  1.8 2.2 0  2 2.2 0  2.2 2.2 0  2.4 2.2 0  2.6 2.2 0  2.8 2.2 0  3 2.2 0  3.2 2.2 0  3.4 2.2 0  3.6 2.2 0  3.8 2.2 0  4 2.2 0  4.2 2.2 0  4.4 2.2 0  4.6 2.2 0  4.8 2.2 0  5 2.2 0  5.2 2.2 0  5.4 2.2 0  5.6 2.2 0  5.8 2.2 0  6 2.2 0  6.2 2.2 0  6.4 2.2 0  6.6 2.2 0  6.8 2.2 0  7 2.2 0  7.2 2.2 0  7.4 2.2 0  7.6 2.2 0  7.8 2.2 0  8 2.2 0  8.199999999999999 2.2 0  8.4 2.2 0  8.6 2.2 0  8.800000000000001 2.2 0  9 2.2 0  9.199999999999999 2.2 0  9.4 2.2 0  9.6 2.2 0  9.800000000000001 2.2 0  10 2.2 0  0 2.4 0  0.2 2.4 0  0.4 2.4 0  0.6 2.4 0  0.8 2.4 0  1 2.4 0  1.2 2.4 0  1.4 2.4 0  1.6 2.4 0  1.8 2.4 0  2 2.4 0  2.2 2.4 0  2.4 2.4 0  2.6 2.4 0  2.8 2.4 0  3 2.4 0  3.2 2.4 0  3.4 2.4 0  3.6 2.4 0  3.8 2.4 0  4 2.4 0  4.2 2.4 0  4.4 2.4 0  4.6 2.4 0  4.8 2.4 0  5 2.4 0  5.2 2.4 0  5.4 2.4 0  5.6 2.4 0  5.8 2.4 0  6 2.4 0  6.2 2.4 0  6.4 2.4 0  6.6 2.4 0  6.8 2.4 0  7 2.4 0  7.2 2.4 0  7.4 2.4 0  7.6 2.4 0  7.8 2.4 0  8 2.4 0  8.199999999999999 2.4 0  8.4 2.4 0  8.6 2.4 0  8.800000000000001 2.4 0  9 2.4 0  9.199999999999999 2.4 0  9.4 2.4 0  9.6 2.4 0  9.800000000000001 2.4 0  10 2.4 0  0 2.6 0  0.2 2.6 0  0.4 2.6 0  0.6 2.6 0  0.8 2.6 0  1 2.6 0  1.2 2.6 0  1.4 2.6 0  1.6 2.6 0  1.8 2.6 0  2 2.6 0  2.2 2.6 0  2.4 2.6 0  2.6 2.6 0  2.8 2.6 0  3 2.6 0  3.2 2.6 0  3.4 2.6 0  3.6 2.6 0  3.8 2.6 0  4 2.6 0  4.2 2.6 0  4.4 2.6 0  4.6 2.6 0  4.8 2.6 0  5 2.6 0  5.2 2.6 0  5.4 2.6 0  5.6 2.6 0  5.8 2.6 0  6 2.6 0  6.2 2.6 0  6.4 2.6 0  6.6 2.6 0  6.8 2.6 0  7 2.6 0  7.2 2.6 0  7.4 2.6 0  7.6 2.6 0  7.8 2.6 0  8 2.6 0  8.199999999999999 2.6 0  8.4 2.6 0  8.6 2.6 0  8.800000000000001 2.6 0  9 2.6 0  9.199999999999999 2.6 0  9.4 2.6 0  9.6 2.6 0  9.800000000000001 2.6 0  10 2.6 0  0 2.8 0  0.2 2.8 0  0.4 2.8 0  0.6 2.8 0  0.8 2.8 0  1 2.8 0  1.2 2.8 0  1.4 2.8 0  1.6 2.8 0  1.8 2.8 0  2 2.8 0  2.2 2.8 0  2.4 2.8 0  2.6 2.8 0  2.8 2.8 0  3 2.8 0  3.2 2.8 0  3.4 2.8 0  3.6 2.8 0  3.8 2.8 0  4 2.8 0  4.2 2.8 0  4.4 2.8 0  4.6 2.8 0  4.8 2.8 0  5 2.8 0  5.2 2.8 0  5.4 2.8 0  5.6 2.8 0  5.8 2.8 0  6 2.8 0  6.2 2.8 0  6.4 2.8 0  6.6 2.8 0  6.8 2.8 0  7 2.8 0  7.2 2.8 0  7.4 2.8 0  7.6 2.8 0  7.8 2.8 0  8 2.8 0  8.199999999999999 2.8 0  8.4 2.8 0  8.6 2.8 0  8.800000000000001 2.8 0  9 2.8 0  9.199999999999999 2.8 0  9.4 2.8 0  9.6 2.8 0  9.800000000000001 2.8 0  10 2.8 0  0 3 0  0.2 3 0  0.4 3 0  0.6 3 0  0.8 3 0  1 3 0  1.2 3 0  1.4 3 0  1.6 3 0  1.8 3 0  2 3 0  2.2 3 0  2.4 3 0  2.6 3 0  2.8 3 0  3 3 0  3.2 3 0  3.4 3 0  3.6 3 0  3.8 3 0  4 3 0  4.2 3 0  4.4 3 0  4.6 3 0  4.8 3 0  5 3 0  5.2 3 0  5.4 3 0  5.6 3 0  5.8 3 0  6 3 0  6.2 3 0  6.4 3 0  6.6 3 0  6.8 3 0  7 3 0  7.2 3 0  7.4 3 0  7.6 3 0  7.8 3 0  8 3 0  8.199999999999999 3 0  8.4 3 0  8.6 3 0  8.800000000000001 3 0  9 3 0  9.199999999999999 3 0  9.4 3 0  9.6 3 0  9.800000000000001 3 0  10 3 0  0 3.2 0  0.2 3.2 0  0.4 3.2 0  0.6 3.2 0  0.8 3.2 0  1 3.2 0  1.2 3.2 0  1.4 3.2 0  1.6 3.2 0  1.8 3.2 0  2 3.2 0  2.2 3.2 0  2.4 3.2 0  2.6 3.2 0  2.8 3.2 0  3 3.2 0  3.2 3.2 0  3.4 3.2 0  3.6 3.2 0  3.8 3.2 0  4 3.2 0  4.2 3.2 0  4.4 3.2 0  4.6 3.2 0  4.8 3.2 0  5 3.2 0  5.2 3.2 0  5.4 3.2 0  5.6 3.2 0  5.8 3.2 0  6 3.2 0  6.2 3.2 0  6.4 3.2 0  6.6 3.2 0  6.8 3.2 0  7 3.2 0  7.2 3.2 0  7.4 3.2 0  7.6 3.2 0  7.8 3.2 0  8 3.2 0  8.199999999999999 3.2 0  8.4 3.2 0  8.6 3.2 0  8.800000000000001 3.2 0  9 3.2 0  9.199999999999999 3.2 0  9.4 3.2 0  9.6 3.2 0  9.800000000000001 3.2 0  10 3.2 0  0 3.4 0  0.2 3.4 0  0.4 3.4 0  0.6 3.4 0  0.8 3.4 0  1 
[...]
<PointData  Scalars="f_8"> 
<DataArray  type="Float64"  Name="f_8"  format="ascii">-1.8793863270823993e-02  -7.9969240095513292e-03  -3.1744198904193723e-03  -1.5501741279222859e-03  -2.9091621090485142e-04  5.5746745500435968e-04  1.1830398024798979e-03  1.6529195916036459e-03  2.0123420163809321e-03  2.2908123868373362e-03  2.5083537879322555e-03  2.6789422184196380e-03  2.8124181321240336e-03  2.9156643826738363e-03  2.9933732273997741e-03  3.0485752636296090e-03  3.0830291286741401e-03  3.0975298681818904e-03  3.0921700613225638e-03  3.0665727399494017e-03  3.0201050008435049e-03  2.9520743133596193e-03  2.8619051916626915e-03  2.7492918218573839e-03  2.6143221091463639e-03  2.4575699804038086e-03  2.2801550218861312e-03  2.0837709867480183e-03  1.8706868341573750e-03  1.6437254898412242e-03  1.4062264744293190e-03  1.1619991867241448e-03  9.1527429127789611e-04  6.7066162857768276e-04  4.3312451192330627e-04  2.0798230521172783e-04  9.5597597406550436e-07  -1.8172461687365946e-04  -3.3312649590223296e-04  -4.4529612521508984e-04  -5.0876237176452591e-04  -5.1176553819045343e-04  -4.3904610091309625e-04  -2.6987793940830361e-04  2.5437034526497018e-05  4.9189167047395679e-04  1.1960244314763360e-03  2.3249895804214869e-03  3.8319664406012291e-03  8.5527480572415316e-03  1.9211544522038632e-02  -1.4545129807555560e-01  -8.2510166941156510e-02  -4.7601413606322147e-02  -2.6574878709517538e-02  -1.2727044832039241e-02  -3.1063708614811488e-03  3.7725148724601868e-03  8.7571228122412526e-03  1.2367330577080319e-02  1.4938579023700896e-02  1.6694592041150157e-02  1.7787845865452099e-02  1.8323846532902661e-02  1.8376686070924717e-02  1.7999635499662374e-02  1.7232769254031964e-02  1.6108706011244703e-02  1.4657046994431095e-02  1.2907797827162117e-02  1.0893885486102765e-02  8.6527880464131561e-03  6.2272632156474828e-03  3.6651807268302619e-03  1.0185214702037183e-03  -1.6583135190161148e-03  -4.3106589888121079e-03  -6.8859187756658844e-03  -9.3357641964214727e-03  -1.1617906900045013e-02  -1.3697220725608679e-02  -1.5546081743533179e-02  -1.7143898586087031e-02  -1.8475894105855421e-02  -1.9531256584459155e-02  -2.0300794326160981e-02  -2.0774199776176928e-02  -2.0936961766326707e-02  -2.0766860805145060e-02  -2.0229840098827442e-02  -1.9274847692972677e-02  -1.7826949561900625e-02  -1.5777524728580031e-02  -1.2969467508720623e-02  -9.1735840856055299e-03  -4.0486803662066594e-03  2.9307348110036448e-03  1.2617370951497250e-02  2.6501282100858937e-02  4.7538639877713666e-02  8.2435785254977356e-02  1.4536510420493806e-01  -2.1022945724688716e-01  -1.3277671363478938e-01  -8.2550414944530401e-02  -4.8322580120437129e-02  -2.4574233968486035e-02  -7.5998524117750627e-03  4.7296468552900702e-03  1.3751224844393029e-02  2.0326399927083873e-02  2.5028380356512142e-02  2.8246944942662108e-02  3.0250998756576563e-02  3.1228023799738904e-02  3.1310311200891422e-02  3.0593360182976214e-02  2.9149450059093241e-02  2.7038070956264967e-02  2.4314121642817980e-02  2.1034304038979525e-02  1.7261850015489792e-02  1.3069556542660992e-02  8.5410580592012331e-03  3.7703155650103816e-03  -1.1405694623971383e-03  -6.0849332583837908e-03  -1.0956058378664851e-02  -1.5652015389567574e-02  -2.0080186563939506e-02  -2.4160868230922897e-02  -2.7829491030859896e-02  -3.1037203360342533e-02  -3.3749785775869928e-02  -3.5945054313153584e-02  -3.7609030984017716e-02  -3.8731191159992358e-02  -3.9299039805305955e-02  -3.9292133392103579e-02  -3.8675465397100414e-02  -3.7391874084545418e-02  -3.5352792561062676e-02  -3.2426183985103288e-02  -2.8419761246075204e-02  -2.3056320255111468e-02  -1.5935690777006531e-02  -6.4733548202262573e-03  6.2035173057955985e-03  2.3442549487735258e-02  4.7382491728818102e-02  8.1737659616066063e-02  1.3203555069845793e-01  2.0951959640178155e-01  -2.5011834755647527e-01  -1.6877141423335157e-01  -1.0944961992228813e-01  -6.6528862609145645e-02  -3.5227671247702839e-02  -1.2197091758685401e-02  4.8700011431376438e-03  1.7535949010662119e-02  2.6869495959425230e-02  3.3609296462328603e-02  3.8270210631095862e-02  4.1213041236372733e-02  4.2691561377366107e-02  4.2885448319434923e-02  4.1924375216978269e-02  3.9906432002946662e-02  3.6912737235999783e-02  3.3019245964452992e-02  2.8306182116569073e-02  2.2865144817358195e-02  1.6803725241141172e-02  1.0247416796591285e-02  3.3387006654127037e-03  -3.7665810728934072e-03  -1.0905139378734040e-02  -1.7913690793777644e-02  -2.4636951137002320e-02  -3.0935070611515104e-02  -3.6689492497547799e-02  -4.1806471976438352e-02  -4.6217859526095043e-02  -4.9879147107433172e-02  -5.2765105966326359e-02  -5.4863546880177222e-02  -5.6167778863653005e-02  -5.6668238483596513e-02  -5.6343539701064448e-02  -5.5150888561505698e-02  -5.3015439245321483e-02  -4.9817730189729618e-02  -4.5377780937051804e-02  -3.9433641938314411e-02  -3.1610971143836535e-02  -2.1378223150421545e-02  -7.9787523538163777e-03  9.6740421629443376e-03  3.3159172313224398e-02  6.4798565621487142e-02  1.0795361509171021e-01  1.6741672012104383e-01  2.4882069735241708e-01  -2.7639848398319572e-01  -1.9264635222594353e-01  -1.2866945105071187e-01  -8.0123366154055825e-02  -4.3462890939726925e-02  -1.5759349648793625e-02  5.1790416132358914e-03  2.0955763820300809e-02  3.2727658972092039e-02  4.1324916097745426e-02  4.7341136948918658e-02  5.1198947119828940e-02  5.3197880269845732e-02  5.3550074888607926e-02  5.2407793730638995e-02  4.9885464893663960e-02  4.6077917709695597e-02  4.1075693037076026e-02  3.4977696073334529e-02  2.7901013404653931e-02  1.9987448492295778e-02  1.1406269669905406e-02  2.3528314617216038e-03  -6.9568910081433226e-03  -1.6295289755433925e-02  -2.5434515589695322e-02  -3.4158718955466245e-02  -4.2275396703906655e-02  -4.9624231386930916e-02  -5.6082238617400908e-02  -6.1564660104930127e-02  -6.6021697979645411e-02  -6.9431724231581643e-02  -7.1791910125704086e-02  -7.3107268259561445e-02  -7.3378914065159770e-02  -7.2592002643872805e-02  -7.0703355446960339e-02  -6.7628312586556480e-02  -6.3225846177907524e-02  -5.7280421368932820e-02  -4.9478428404217081e-02  -3.9376137154493285e-02  -2.6354960216117575e-02  -9.5584009896167357e-03  1.2196037786589203e-02  4.0535389823195475e-02  7.7671884053357343e-02  1.2655074380025658e-01  1.9073004284453665e-01  2.7456548501647787e-01  -2.9378324361714836e-01  -2.0875380874046720e-01  -1.4184145455054953e-01  -8.9613170840202830e-02  -4.9129512211332424e-02  -1.7870142596310482e-02  6.1769356058700136e-03  2.4563783612436742e-02  3.8459213528921780e-02  4.8729200191937098e-02  5.6006652060375875e-02  6.0747888451369345e-02  6.3277376755545289e-02  6.3823416595524970e-02  6.2547335688737785e-02  5.9568192281008153e-02  5.4984291020800553e-02  4.8892128487563954e-02  4.1402743539615927e-02  3.2654910133364010e-02  2.2824251832216785e-02  1.2127265989889115e-02  8.1949172855491029e-04  -1.0812350208414746e-02  -2.2463560488412564e-02  -3.3828388111668585e-02  -4.4618303126862900e-02  -5.4578890436649506e-02  -6.3502839884327256e-02  -7.1237224173147928e-02  -7.7684298251909686e-02  -8.2796139204721383e-02  -8.6564302723139253e-02  -8.9006127673126351e-02  -9.0149336669667415e-02  -9.0016237196213447e-02  -8.8608265554091500e-02  -8.5890976915089581e-02  -8.1778969852966246e-02  -7.6119686719667137e-02  -6.8674546296741912e-02  -5.9095411203513956e-02  -4.6893953841361524e-02  -3.1401133292343245e-02  -1.1714040942032745e-02  1.3371379889059027e-02  4.5438959469751440e-02  8.6527763633352794e-02  1.3917951661300978e-01  2.0634986301657929e-01  2.9148551560647096e-01  -3.0504137698345773e-01  -2.1917341540771956e-01  -1.5036243222867590e-01  -9.5604318164837429e-02  -5.2353113955586367e-02  -1.8380172065327112e-02  8.1543482334855907e-03  2.8719694545065910e-02  4.4456479188781116e-02  5.6229991235848424e-02  6.4682622936423698e-02  7.0280548824748448e-02  7.3353687150437205e-02  7.4129816748950250e-02  7.2764320221064258e-02  6.9366946088063541e-02  6.4026547445518736e-02  5.6834122807565869e-02  4.7903759277152298e-02  3.7390369760358720e-02  2.5502573515535077e-02  1.2508872386173786e-02  -1.2644126094141430e-03  -1.5444085783311780e-02  -2.9629163633936487e-02  -4.3415792516637138e-02  -5.6424358234421747e-02  -6.8324506168136151e-02  -7.8854094016344689e-02  -8.7829304318762055e-02  -9.5144902308072390e-02  -1.0076542079568292e-01  -1.0470940835984399e-01  -1.0702951278892303e-01  -1.0779107083187572e-01  -1.0705122472397305e-01  -1.0483966146700249e-01  -1.0114112545060883e-01  -9.5879053356600893e-02  -8.8899087249055556e-02  -7.9950830373647239e-02  -6.8665989819118339e-02  -5.4531004053547466e-02  -3.6852488015418947e-02  -1.4714646232103726e-02  1.3070217325047378e-02  4.8013004377446836e-02  9.1988479047026811e-02  1.4725249473227411e-01  2.1637131959332587e-01  3.0236647676553202e-01  -3.1188407422288589e-01  -2.2544077250292768e-01  -1.5530418302604507e-01  -9.8727786049970415e-02  -5.3408759927295262e-02  -1.7322536940730850e-02  1.1230564637428426e-02  3.3635552290362580e-02  5.0988465911925657e-02  6.4133235102183037e-02  7.3701421026214645e-02  8.0150414124585082e-02  8.3798426261448691e-02  8.4856357466479862e-02  8.3457451567081425e-02  7.9685826767516177e-02  7.3604667232128176e-02  6.5284206170118236e-02  5.4828718233830759e-02  4.2400712967665247e-02  2.8239613815772741e-02  1.2671737316091022e-02  -3.8913105582722898e-03  -2.0967416267449853e-02  -3.8031312704039040e-02  -5.4551238263483577e-02  -7.0029285079062448e-02  -8.4038612474799781e-02  -9.6251156411558791e-02  -1.0645152401052833e-01  -1.1453577411136412e-01  -1.2049678847682764e-01  -1.2440007399722829e-01  -1.2635466533844794e-01  -1.2648338182185870e-01  -1.2489544772292917e-01  -1.2166293700082743e-01  -1.1680108162445749e-01  -1.1025142651364142e-01  -1.0186618223110271e-01  -9.1391865984057644e-02  -7.8450351182152309e-02  -6.2515728785199495e-02  -4.2885981012477002e-02  -1.8649569963292770e-02  1.1351075570789817e-02  4.8554376540060618e-02  9.4704124642708373e-02  1.5185887688569105e-01  2.2234661214020476e-01  3.0893570122834629e-01  -3.1545360335693828e-01  -2.2859053986240196e-01  -1.5747414237363086e-01  -9.9525153561197066e-02  -5.2598965761559077e-02  -1.4813547980895278e-02  1.5423000557730104e-02  3.9421553074711319e-02  5.8230299946736251e-02  7.2661921369466004e-02  8.3324494739229718e-02  9.0652841909212092e-02  9.4938854117733562e-02  9.6360787975613746e-02  9.5012396490160661e-02  9.0933055943692262e-02  8.4139813823273096e-02  7.4661532855731891e-02  6.2574079094925794e-02  4.8033936001930948e-02  3.1306040504794609e-02  1.2780557727324799e-02  -7.0266168495040264e-03  -2.7493093670367435e-02  -4.7928952798366467e-02  -6.7630889578918468e-02  -8.5942774687094728e-02  -1.0231154703186385e-01  -1.1632802428222995e-01  -1.2774580145564507e-01  -1.3647666860459934e-01  -1.4256607394850546e-01  -1.4615551867184662e-01  -1.4743971812440490e-01  -1.4662520082116695e-01  -1.4389464034199578e-01  -1.3937860865786178e-01  -1.3313430203130644e-01  -1.2512942390750173e-01  -1.1522879614931132e-01  -1.0318123214221898e-01  -8.8604546196342934e-02  -7.0967169802491056e-02  -4.9565682843060281e-02  -2.3498729155511548e-02  8.3606487813328596e-03  4.7390392324643614e-02  9.5236958855059103e-02  1.5382399049012160e-01  2.2532666829838571e-01  3.1235115159817389e-01  -3.1654920720992907e-01  -2.2936319070602859e-01  -1.5748289389463596e-01  -9.8444766372680584e-02  -5.0212531696780777e-02  -1.1005032926533631e-02  2.0688503444048330e-02  4.6117917220913671e-02  6.6286761558248170e-02  8.1973417171885540e-02  9.3755605094275343e-02  1.0203603491215474e-01  1.0706822682005523e-01  1.0898281442605892e-01  1.0781555023528959e-01  1.0353866987635336e-01  9.6097125319943022e-02  8.5450346479654674e-02  7.1618536005888314e-02  5.4730099355637128e-02  3.5064037904688879e-02  1.3078804183329479e-02  -1.0581574275632492e-02  -3.5111175505885397e-02  -5.9597332091846755e-02  -8.3101126035865780e-02  -1.0474937896250601e-01  -1.2381975644740995e-01  -1.3980153685151483e-01  -1.5242098804328058e-01  -1.6162969584445847e-01  -1.6756297670423526e-01  -1.7048076013951641e-01  -1.7070406569276744e-01  -1.6855736296962445e-01  -1.6432260480190150e-01  -1.5820636716121086e-01  -1.5031838788393490e-01  -1.4065814549161612e-01  -1.2910570994658022e-01  -1.1541348846897380e-01  -9.9196287610938128e-02  -7.9918077468349849e-02  -5.6874896275525770e-02  -2.9174499804840319e-02  4.2853523127505868e-03  4.4836883615234614e-02  9.4056850026541447e-02  1.5377620514759863e-01  2.2606753879197966e-01  3.1342683555236522e-01  -3.1575573187708178e-01  -2.2830916655884698e-01  -1.5580247308354667e-01  -9.5856816222186281e-02  -4.6512829484051832e-02  -6.0618038701611967e-03  2.6946779877160213e-02  5.3714727591822879e-02  7.5207326514422454e-02  9.2170066791202765e-02  1.0514797402987311e-01  1.1450600786249104e-01  1.2045007257829268e-01  1.2304944327484248e-01  1.2226249564058213e-01  1.1796833760523937e-01  1.1000704651335770e-01  9.8230393870456748e-02  8.2562836790186681e-02  6.3068982876105822e-02  4.0019001113185758e-02  1.3938709782231206e-02  -1.4371577209798392e-02  -4.3863403950827051e-02  -7.3317500113327050e-02  -1.0146440264283874e-01  -1.2712626687610146e-01  -1.4934866647548053e-01  -1.6749235213384492e-01  -1.8126663779696234e-01  -1.9070332567328610e-01  -1.9608551452670500e-01  -1.9785372158389464e-01  -1.9651127236256663e-01  -1.9254445859296018e-01  -1.8636455589689108e-01  -1.7827165777884579e-01  -1.6843589851386243e-01  -1.5688996842922232e-01  -1.4352705969605190e-01  -1.2809959403551407e-01  -1.1021559218129942e-01  -8.9330991393777232e-02  -6.4737505771958859e-02  -3.5546797724185196e-02  -6.7281619545749472e-04  4.1185022580772716e-02  9.1555077879917554e-02  1.5220414336296850e-01  2.2513360678350011e-01  3.1276056458449197e-01  -3.1352045412735452e-01  -2.2585425411108320e-01  -1.5280984442975948e-01  -9.2072828387381025e-02  -4.1739700100539436e-02  -1.5394198332692089e-04  3.4091296128058279e-02  6.2162059992454548e-02  8.4993598463080897e-02  1.0330330514112389e-01  1.1760524847199995e-01  1.2822512968583638e-01  1.3531558046878950e-01  1.3887311820906989e-01  1.3875950920573826e-01  1.3473152696769031e-01  1.2648379150783440e-01  1.1370895885395790e-01  9.6177208910457737e-02  7.3832009709133228e-02  4.6891398213112397e-02  1.5934859100708656e-02  -1.8051236149708185e-02  -5.3696604872898131e-02  -8.9353704641400314e-02  -1.2328002696164136e-01  -1.5386052154379376e-01  -1.7981586556567233e-01  -2.0034335425063829e-01  -2.1515921603536944e-01  -2.2444374630105607e-01  -2.2871824103469635e-01  -2.2869472802217905e-01  -2.2513507107332859e-01  -2.1874191671846829e-01  -2.1008850869975196e-01  -1.9958313508097519e-01  -1.8745846261551552e-01  -1.7377514793336143e-01  -1.5843088924233065e-01  -1.4116876934083017e-01  -1.2158130916878174e-01  -9.9108699208029297e-02  -7.3031197792506053e-02  -4.2456838044892913e-02  -6.3064921845647787e-03  3.6701104130944406e-02  8.8062057804096608e-02  1.4949867936056876e-01  2.2296167686308002e-01  3.1080957260662628e-01  -3.1020100849418131e-01  -2.2234231577530031e-01  -1.4881788235900548e-01  -8.7363464289290593e-02  -3.6116279708240745e-02  6.5433533426595449e-03  4.1992463043311258e-02  7.1373181887038645e-02  9.5600546062433095e-02  1.1537181639834314e-01  1.3117613620120994e-01  1.4330341791879789e-01  1.5185247859580570e-01  1.5674009642357309e-01  1.5771461702575437e-01  1.5437983592361498e-01  1.4623673780899618e-01  1.3275143668701297e-01  1.1345589695165828e-01  8.8081894510848219e-02  5.6716831781982856e-02  1.9953263147790570e-02  -2.1012616214354522e-02  -6.4384775625573362e-02  -1.0790991451851563e-01  -1.4915515727773865e-01  -1.8586383378441673e-01  -2.1629241625945911e-01  -2.3943109938866047e-01  -2.5505345769718601e-01  -2.6360422729391925e-01  -2.6598447676738923e-01  -2.6330983247568612e-01  -2.5670206809489426e-01  -2.4714436037394186e-01  -2.3540287720215966e-01  -2.2200072767234816e-01  -2.0722490095861054e-01  -1.9114872010127870e-01  -1.7365726049287850e-01  -1.5446827651648534e-01  -1.3314516831363149e-01  -1.0910119100631013e-01  -8.1595747499847937e-02  -4.9724613070733781e-02  -1.2406596796622199e-02  3.1630568830530559e-02  8.3862906215880981e-02  1.4598209979718590e-01  2.1990214790676188e-01  3.0793698497060046e-01  -3.0609614448746469e-01  -2.1806326045061888e-01  -1.4409710446555715e-01  -8.1972824174271847e-02  -2.9856680254026092e-02  1.3846621550173174e-02  5.0496563976791364e-02  8.1223265433046379e-02  1.0693311555629539e-01  1.2831458374333632e-01  1.4584285266446076e-01  1.5978186653524801e-01  1.7018352950733023e-01  1.7688567836082814e-01  1.7951302888597562e-01  1.7748859270466844e-01  1.7006683565745145e-01  1.5640312374438867e-01  1.3567457833556548e-01  1.0726170991166825e-01  7.0983908811710225e-02  2.7353176722563256e-02  -2.2224956625591874e-02  -7.5398917584210912e-02  -1.2904984842550321e-01  -1.7971703383544424e-01  -2.2417960665856401e-01  -2.6001674466101826e-01  -2.8596067866577496e-01  -3.0194466093348482e-01  -3.0887584140072472e-01  -3.0825664037287509e-01  -3.0179529589333365e-01  -2.9110279739296990e-01  -2.7751098013366504e-01  -2.6199917131695794e-01  -2.4519519160832889e-01  -2.2741524733914345e-01  -2.0871592616487672e-01  -1.8894210951859569e-01  -1.6776316941554162e-01  -1.4469535816375462e-01  -1.1911132750869775e-01  -9.0239131273557358e-02  -5.7153659391310799e-02  -1.8763696823622937e-02  2.6202251674545519e-02  7.9209119883929036e-02  1.4192777844884402e-01  2.1624526717888790e-01  3.0444098633867711e-01  -3.0146561043788178e-01  -2.1327138453193620e-01  -1.3889055213570206e-01  -7.6129062444909856e-02  -2.3172667417595418e-02  2.1560205694293771e-02  5.9422893510649916e-02  9.1545757741464742e-02  1.1883996677564518e-01  1.4200015062825139e-01  1.6150414054201331e-01  1.7760769389240036e-01  1.9033311031665709e-01  1.9945259192465831e-01  2.0447028238540479e-01  2.0461157346269748e-01  1.9883474913504556e-01  1.8588772102342327e-01  1.6443885394637328e-01  1.3330971520106047e-01  9.1819461428014199e-02  4.0205988988426020e-02  -1.9981000231255101e-02  -8.5688425373181998e-02  -1.5255219183435534e-01  -2.1554914834689951e-01  -2.6997173190575607e-01  -3.1238857941206899e-01  -3.4122408517051944e-01  -3.5677509444802269e-01  -3.6075090712325114e-01  -3.5560000006740378e-01  -3.4388600933391678e-01  -3.2786191478114257e-01  -3.0926518132082664e-01  -2.8928122098910203e-01  -2.6860266085124107e-01  -2.4752477758938388e-01  -2.2604003711918913e-01  -2.0391416331545092e-01  -1.8073875283063903e-01  -1.5596196536605880e-01  -1.2890138588650255e-01  -9.8743688767237311e-02  -6.4535493144908612e-02  -2.5169412421078407e-02  2.0631180965108919e-02  7.4326360578096870e-02  1.3757292946793651e-01  2.1223775753636981e-01  3.0057314223093490e-01  -2.9654274830807098e-01  -2.0819707303341561e-01  -1.3342346819408987e-01  -7.0051525859131686e-02  -1.6278413844130892e-02  2.9473117506990228e-02  6.8561003770736692e-02  1.0212840990553360e-01  1.3110635663709350e-01  1.5621407046425070e-01  1.7795461180833824e-01  1.9660261179372526e-01  2.1218153480008908e-01  2.2442948343316174e-01  2.3275566439739651e-01  2.3619528731408002e-01  2.3338016806530312e-01  2.2255639475922281e-01  2.0169738051854502e-01  1.6877289813860682e-01  1.2222492949221045e-01  6.1643020278647820e-02  -1.1494122962208173e-02  -9.3310211207907237e-02  -1.7764792195278081e-01  -2.5705708063395005e-01  -3.2447188940899557e-01  -3.7491496066778823e-01  -4.0648095890889419e-01  -4.2023411456366638e-01  -4.1927078299189829e-01  -4.0751337032445817e-01  -3.8872702025838390e-01  -3.6596045693822810e-01  -3.4137063179375909e-01  -3.1628764397679715e-01  -2.9138215287922553e-01  -2.6684536660297520e-01  -2.4253851064087723e-01  -2.1809939302847761e-01  -1.9300902803148071e-01  -1.6662671253198647e-01  -1.3820241797872534e-01  -1.0687400824709577e-01  -7.1655215088073168e-02  -3.1419085708689044e-02  1.51193370