<?xml version="1.0"?>
<VTKFile type="UnstructuredGrid"  version="0.1"  >
<UnstructuredGrid>
<Piece  NumberOfPoints="5101" NumberOfCells="10000">
<Points>
<DataArray  type="Float64"  NumberOfComponents="3"  format="ascii">0 0 0  0.2 0 0  0.4 0 0  0.6 0 0  0.8 0 0  1 0 0  1.2 0 0  1.4 0 0  1.6 0 0  1.8 0 0  2 0 0  2.2 0 0  2.4 0 0  2.6 0 0  2.8 0 0  3 0 0  3.2 0 0  3.4 0 0  3.6 0 0  3.8 0 0  4 0 0  4.2 0 0  4.4 0 0  4.6 0 0  4.8 0 0  5 0 0  5.2 0 0  5.4 0 0  5.6 0 0  5.8 0 0  6 0 0  6.2 0 0  6.4 0 0  6.6 0 0  6.8 0 0  7 0 0  7.2 0 0  7.4 0 0  7.6 0 0  7.8 0 0  8 0 0  8.199999999999999 0 0  8.4 0 0  8.6 0 0  8.800000000000001 0 0  9 0 0  9.199999999999999 0 0  9.4 0 0  9.6 0 0  9.800000000000001 0 0  10 0 0  0 0.2 0  0.2 0.2 0  0.4 0.2 0  0.6 0.2 0  0.8 0.2 0  1 0.2 0  1.2 0.2 0  1.4 0.2 0  1.6 0.2 0  1.8 0.2 0  2 0.2 0  2.2 0.2 0  2.4 0.2 0  2.6 0.2 0  2.8 0.2 0  3 0.2 0  3.2 0.2 0  3.4 0.2 0  3.6 0.2 0  3.8 0.2 0  4 0.2 0  4.2 0.2 0  4.4 0.2 0  4.6 0.2 0  4.8 0.2 0  5 0.2 0  5.2 0.2 0  5.4 0.2 0  5.6 0.2 0  5.8 0.2 0  6 0.2 0  6.2 0.2 0  6.4 0.2 0  6.6 0.2 0  6.8 0.2 0  7 0.2 0  7.2 0.2 0  7.4 0.2 0  7.6 0.2 0  7.8 0.2 0  8 0.2 0  8.199999999999999 0.2 0  8.4 0.2 0  8.6 0.2 0  8.800000000000001 0.2 0  9 0.2 0  9.199999999999999 0.2 0  9.4 0.2 0  9.6 0.2 0  9.800000000000001 0.2 0  10 0.2 0  0 0.4 0  0.2 0.4 0  0.4 0.4 0  0.6 0.4 0  0.8 0.4 0  1 0.4 0  1.2 0.4 0  1.4 0.4 0  1.6 0.4 0  1.8 0.4 0  2 0.4 0  2.2 0.4 0  2.4 0.4 0  2.6 0.4 0  2.8 0.4 0  3 0.4 0  3.2 0.4 0  3.4 0.4 0  3.6 0.4 0  3.8 0.4 0  4 0.4 0  4.2 0.4 0  4.4 0.4 0  4.6 0.4 0  4.8 0.4 0  5 0.4 0  5.2 0.4 0  5.4 0.4 0  5.6 0.4 0  5.8 0.4 0  6 0.4 0  6.2 0.4 0  6.4 0.4 0  6.6 0.4 0  6.8 0.4 0  7 0.4 0  7.2 0.4 0  7.4 0.4 0  7.6 0.4 0  7.8 0.4 0  8 0.4 0  8.199999999999999 0.4 0  8.4 0.4 0  8.6 0.4 0  8.800000000000001 0.4 0  9 0.4 0  9.199999999999999 0.4 0  9.4 0.4 0  9.6 0.4 0  9.800000000000001 0.4 0  10 0.4 0  0 0.6 0  0.2 0.6 0  0.4 0.6 0  0.6 0.6 0  0.8 0.6 0  1 0.6 0  1.2 0.6 0  1.4 0.6 0  1.6 0.6 0  1.8 0.6 0  2 0.6 0  2.2 0.6 0  2.4 0.6 0  2.6 0.6 0  2.8 0.6 0  3 0.6 0  3.2 0.6 0  3.4 0.6 0  3.6 0.6 0  3.8 0.6 0  4 0.6 0  4.2 0.6 0  4.4 0.6 0  4.6 0.6 0  4.8 0.6 0  5 0.6 0  5.2 0.6 0  5.4 0.6 0  5.6 0.6 0  5.8 0.6 0  6 0.6 0  6.2 0.6 0  6.4 0.6 0  6.6 0.6 0  6.8 0.6 0  7 0.6 0  7.2 0.6 0  7.4 0.6 0  7.6 0.6 0  7.8 0.6 0  8 0.6 0  8.199999999999999 0.6 0  8.4 0.6 0  8.6 0.6 0  8.800000000000001 0.6 0  9 0.6 0  9.199999999999999 0.6 0  9.4 0.6 0  9.6 0.6 0  9.800000000000001 0.6 0  10 0.6 0  0 0.8 0  0.2 0.8 0  0.4 0.8 0  0.6 0.8 0  0.8 0.8 0  1 0.8 0  1.2 0.8 0  1.4 0.8 0  1.6 0.8 0  1.8 0.8 0  2 0.8 0  2.2 0.8 0  2.4 0.8 0  2.6 0.8 0  2.8 0.8 0  3 0.8 0  3.2 0.8 0  3.4 0.8 0  3.6 0.8 0  3.8 0.8 0  4 0.8 0  4.2 0.8 0  4.4 0.8 0  4.6 0.8 0  4.8 0.8 0  5 0.8 0  5.2 0.8 0  5.4 0.8 0  5.6 0.8 0  5.8 0.8 0  6 0.8 0  6.2 0.8 0  6.4 0.8 0  6.6 0.8 0  6.8 0.8 0  7 0.8 0  7.2 0.8 0  7.4 0.8 0  7.6 0.8 0  7.8 0.8 0  8 0.8 0  8.199999999999999 0.8 0  8.4 0.8 0  8.6 0.8 0  8.800000000000001 0.8 0  9 0.8 0  9.199999999999999 0.8 0  9.4 0.8 0  9.6 0.8 0  9.800000000000001 0.8 0  10 0.8 0  0 1 0  0.2 1 0  0.4 1 0  0.6 1 0  0.8 1 0  1 1 0  1.2 1 0  1.4 1 0  1.6 1 0  1.8 1 0  2 1 0  2.2 1 0  2.4 1 0  2.6 1 0  2.8 1 0  3 1 0  3.2 1 0  3.4 1 0  3.6 1 0  3.8 1 0  4 1 0  4.2 1 0  4.4 1 0  4.6 1 0  4.8 1 0  5 1 0  5.2 1 0  5.4 1 0  5.6 1 0  5.8 1 0  6 1 0  6.2 1 0  6.4 1 0  6.6 1 0  6.8 1 0  7 1 0  7.2 1 0  7.4 1 0  7.6 1 0  7.8 1 0  8 1 0  8.199999999999999 1 0  8.4 1 0  8.6 1 0  8.800000000000001 1 0  9 1 0  9.199999999999999 1 0  9.4 1 0  9.6 1 0  9.800000000000001 1 0  10 1 0  0 1.2 0  0.2 1.2 0  0.4 1.2 0  0.6 1.2 0  0.8 1.2 0  1 1.2 0  1.2 1.2 0  1.4 1.2 0  1.6 1.2 0  1.8 1.2 0  2 1.2 0  2.2 1.2 0  2.4 1.2 0  2.6 1.2 0  2.8 1.2 0  3 1.2 0  3.2 1.2 0  3.4 1.2 0  3.6 1.2 0  3.8 1.2 0  4 1.2 0  4.2 1.2 0  4.4 1.2 0  4.6 1.2 0  4.8 1.2 0  5 1.2 0  5.2 1.2 0  5.4 1.2 0  5.6 1.2 0  5.8 1.2 0  6 1.2 0  6.2 1.2 0  6.4 1.2 0  6.6 1.2 0  6.8 1.2 0  7 1.2 0  7.2 1.2 0  7.4 1.2 0  7.6 1.2 0  7.8 1.2 0  8 1.2 0  8.199999999999999 1.2 0  8.4 1.2 0  8.6 1.2 0  8.800000000000001 1.2 0  9 1.2 0  9.199999999999999 1.2 0  9.4 1.2 0  9.6 1.2 0  9.800000000000001 1.2 0  10 1.2 0  0 1.4 0  0.2 1.4 0  0.4 1.4 0  0.6 1.4 0  0.8 1.4 0  1 1.4 0  1.2 1.4 0  1.4 1.4 0  1.6 1.4 0  1.8 1.4 0  2 1.4 0  2.2 1.4 0  2.4 1.4 0  2.6 1.4 0  2.8 1.4 0  3 1.4 0  3.2 1.4 0  3.4 1.4 0  3.6 1.4 0  3.8 1.4 0  4 1.4 0  4.2 1.4 0  4.4 1.4 0  4.6 1.4 0  4.8 1.4 0  5 1.4 0  5.2 1.4 0  5.4 1.4 0  5.6 1.4 0  5.8 1.4 0  6 1.4 0  6.2 1.4 0  6.4 1.4 0  6.6 1.4 0  6.8 1.4 0  7 1.4 0  7.2 1.4 0  7.4 1.4 0  7.6 1.4 0  7.8 1.4 0  8 1.4 0  8.199999999999999 1.4 0  8.4 1.4 0  8.6 1.4 0  8.800000000000001 1.4 0  9 1.4 0  9.199999999999999 1.4 0  9.4 1.4 0  9.6 1.4 0  9.800000000000001 1.4 0  10 1.4 0  0 1.6 0  0.2 1.6 0  0.4 1.6 0  0.6 1.6 0  0.8 1.6 0  1 1.6 0  1.2 1.6 0  1.4 1.6 0  1.6 1.6 0  1.8 1.6 0  2 1.6 0  2.2 1.6 0  2.4 1.6 0  2.6 1.6 0  2.8 1.6 0  3 1.6 0  3.2 1.6 0  3.4 1.6 0  3.6 1.6 0  3.8 1.6 0  4 1.6 0  4.2 1.6 0  4.4 1.6 0  4.6 1.6 0  4.8 1.6 0  5 1.6 0  5.2 1.6 0  5.4 1.6 0  5.6 1.6 0  5.8 1.6 0  6 1.6 0  6.2 1.6 0  6.4 1.6 0  6.6 1.6 0  6.8 1.6 0  7 1.6 0  7.2 1.6 0  7.4 1.6 0  7.6 1.6 0  7.8 1.6 0  8 1.6 0  8.199999999999999 1.6 0  8.4 1.6 0  8.6 1.6 0  8.800000000000001 1.6 0  9 1.6 0  9.199999999999999 1.6 0  9.4 1.6 0  9.6 1.6 0  9.800000000000001 1.6 0  10 1.6 0  0 1.8 0  0.2 1.8 0  0.4 1.8 0  0.6 1.8 0  0.8 1.8 0  1 1.8 0  1.2 1.8 0  1.4 1.8 0  1.6 1.8 0  1.8 1.8 0  2 1.8 0  2.2 1.8 0  2.4 1.8 0  2.6 1.8 0  2.8 1.8 0  3 1.8 0  3.2 1.8 0  3.4 1.8 0  3.6 1.8 0  3.8 1.8 0  4 1.8 0  4.2 1.8 0  4.4 1.8 0  4.6 1.8 0  4.8 1.8 0  5 1.8 0  5.2 1.8 0  5.4 1.8 0  5.6 1.8 0  5.8 1.8 0  6 1.8 0  6.2 1.8 0  6.4 1.8 0  6.6 1.8 0  6.8 1.8 0  7 1.8 0  7.2 1.8 0  7.4 1.8 0  7.6 1.8 0  7.8 1.8 0  8 1.8 0  8.199999999999999 1.8 0  8.4 1.8 0  8.6 1.8 0  8.800000000000001 1.8 0  9 1.8 0  9.199999999999999 1.8 0  9.4 1.8 0  9.6 1.8 0  9.800000000000001 1.8 0  10 1.8 0  0 2 0  0.2 2 0  0.4 2 0  0.6 2 0  0.8 2 0  1 2 0  1.2 2 0  1.4 2 0  1.6 2 0  1.8 2 0  2 2 0  2.2 2 0  2.4 2 0  2.6 2 0  2.8 2 0  3 2 0  3.2 2 0  3.4 2 0  3.6 2 0  3.8 2 0  4 2 0  4.2 2 0  4.4 2 0  4.6 2 0  4.8 2 0  5 2 0  5.2 2 0  5.4 2 0  5.6 2 0  5.8 2 0  6 2 0  6.2 2 0  6.4 2 0  6.6 2 0  6.8 2 0  7 2 0  7.2 2 0  7.4 2 0  7.6 2 0  7.8 2 0  8 2 0  8.199999999999999 2 0  8.4 2 0  8.6 2 0  8.800000000000001 2 0  9 2 0  9.199999999999999 2 0  9.4 2 0  9.6 2 0  9.800000000000001 2 0  10 2 0  0 2.2 0  0.2 2.2 0  0.4 2.2 0  0.6 2.2 0  0.8 2.2 0  1 2.2 0  1.2 2.2 0  1.4 2.2 0  1.6 2.2 0  1.8 2.2 0  2 2.2 0  2.2 2.2 0  2.4 2.2 0  2.6 2.2 0  2.8 2.2 0  3 2.2 0  3.2 2.2 0  3.4 2.2 0  3.6 2.2 0  3.8 2.2 0  4 2.2 0  4.2 2.2 0  4.4 2.2 0  4.6 2.2 0  4.8 2.2 0  5 2.2 0  5.2 2.2 0  5.4 2.2 0  5.6 2.2 0  5.8 2.2 0  6 2.2 0  6.2 2.2 0  6.4 2.2 0  6.6 2.2 0  6.8 2.2 0  7 2.2 0  7.2 2.2 0  7.4 2.2 0  7.6 2.2 0  7.8 2.2 0  8 2.2 0  8.199999999999999 2.2 0  8.4 2.2 0  8.6 2.2 0  8.800000000000001 2.2 0  9 2.2 0  9.199999999999999 2.2 0  9.4 2.2 0  9.6 2.2 0  9.800000000000001 2.2 0  10 2.2 0  0 2.4 0  0.2 2.4 0  0.4 2.4 0  0.6 2.4 0  0.8 2.4 0  1 2.4 0  1.2 2.4 0  1.4 2.4 0  1.6 2.4 0  1.8 2.4 0  2 2.4 0  2.2 2.4 0  2.4 2.4 0  2.6 2.4 0  2.8 2.4 0  3 2.4 0  3.2 2.4 0  3.4 2.4 0  3.6 2.4 0  3.8 2.4 0  4 2.4 0  4.2 2.4 0  4.4 2.4 0  4.6 2.4 0  4.8 2.4 0  5 2.4 0  5.2 2.4 0  5.4 2.4 0  5.6 2.4 0  5.8 2.4 0  6 2.4 0  6.2 2.4 0  6.4 2.4 0  6.6 2.4 0  6.8 2.4 0  7 2.4 0  7.2 2.4 0  7.4 2.4 0  7.6 2.4 0  7.8 2.4 0  8 2.4 0  8.199999999999999 2.4 0  8.4 2.4 0  8.6 2.4 0  8.800000000000001 2.4 0  9 2.4 0  9.199999999999999 2.4 0  9.4 2.4 0  9.6 2.4 0  9.800000000000001 2.4 0  10 2.4 0  0 2.6 0  0.2 2.6 0  0.4 2.6 0  0.6 2.6 0  0.8 2.6 0  1 2.6 0  1.2 2.6 0  1.4 2.6 0  1.6 2.6 0  1.8 2.6 0  2 2.6 0  2.2 2.6 0  2.4 2.6 0  2.6 2.6 0  2.8 2.6 0  3 2.6 0  3.2 2.6 0  3.4 2.6 0  3.6 2.6 0  3.8 2.6 0  4 2.6 0  4.2 2.6 0  4.4 2.6 0  4.6 2.6 0  4.8 2.6 0  5 2.6 0  5.2 2.6 0  5.4 2.6 0  5.6 2.6 0  5.8 2.6 0  6 2.6 0  6.2 2.6 0  6.4 2.6 0  6.6 2.6 0  6.8 2.6 0  7 2.6 0  7.2 2.6 0  7.4 2.6 0  7.6 2.6 0  7.8 2.6 0  8 2.6 0  8.199999999999999 2.6 0  8.4 2.6 0  8.6 2.6 0  8.800000000000001 2.6 0  9 2.6 0  9.199999999999999 2.6 0  9.4 2.6 0  9.6 2.6 0  9.800000000000001 2.6 0  10 2.6 0  0 2.8 0  0.2 2.8 0  0.4 2.8 0  0.6 2.8 0  0.8 2.8 0  1 2.8 0  1.2 2.8 0  1.4 2.8 0  1.6 2.8 0  1.8 2.8 0  2 2.8 0  2.2 2.8 0  2.4 2.8 0  2.6 2.8 0  2.8 2.8 0  3 2.8 0  3.2 2.8 0  3.4 2.8 0  3.6 2.8 0  3.8 2.8 0  4 2.8 0  4.2 2.8 0  4.4 2.8 0  4.6 2.8 0  4.8 2.8 0  5 2.8 0  5.2 2.8 0  5.4 2.8 0  5.6 2.8 0  5.8 2.8 0  6 2.8 0  6.2 2.8 0  6.4 2.8 0  6.6 2.8 0  6.8 2.8 0  7 2.8 0  7.2 2.8 0  7.4 2.8 0  7.6 2.8 0  7.8 2.8 0  8 2.8 0  8.199999999999999 2.8 0  8.4 2.8 0  8.6 2.8 0  8.800000000000001 2.8 0  9 2.8 0  9.199999999999999 2.8 0  9.4 2.8 0  9.6 2.8 0  9.800000000000001 2.8 0  10 2.8 0  0 3 0  0.2 3 0  0.4 3 0  0.6 3 0  0.8 3 0  1 3 0  1.2 3 0  1.4 3 0  1.6 3 0  1.8 3 0  2 3 0  2.2 3 0  2.4 3 0  2.6 3 0  2.8 3 0  3 3 0  3.2 3 0  3.4 3 0  3.6 3 0  3.8 3 0  4 3 0  4.2 3 0  4.4 3 0  4.6 3 0  4.8 3 0  5 3 0  5.2 3 0  5.4 3 0  5.6 3 0  5.8 3 0  6 3 0  6.2 3 0  6.4 3 0  6.6 3 0  6.8 3 0  7 3 0  7.2 3 0  7.4 3 0  7.6 3 0  7.8 3 0  8 3 0  8.199999999999999 3 0  8.4 3 0  8.6 3 0  8.800000000000001 3 0  9 3 0  9.199999999999999 3 0  9.4 3 0  9.6 3 0  9.800000000000001 3 0  10 3 0  0 3.2 0  0.2 3.2 0  0.4 3.2 0  0.6 3.2 0  0.8 3.2 0  1 3.2 0  1.2 3.2 0  1.4 3.2 0  1.6 3.2 0  1.8 3.2 0  2 3.2 0  2.2 3.2 0  2.4 3.2 0  2.6 3.2 0  2.8 3.2 0  3 3.2 0  3.2 3.2 0  3.4 3.2 0  3.6 3.2 0  3.8 3.2 0  4 3.2 0  4.2 3.2 0  4.4 3.2 0  4.6 3.2 0  4.8 3.2 0  5 3.2 0  5.2 3.2 0  5.4 3.2 0  5.6 3.2 0  5.8 3.2 0  6 3.2 0  6.2 3.2 0  6.4 3.2 0  6.6 3.2 0  6.8 3.2 0  7 3.2 0  7.2 3.2 0  7.4 3.2 0  7.6 3.2 0  7.8 3.2 0  8 3.2 0  8.199999999999999 3.2 0  8.4 3.2 0  8.6 3.2 0  8.800000000000001 3.2 0  9 3.2 0  9.199999999999999 3.2 0  9.4 3.2 0  9.6 3.2 0  9.800000000000001 3.2 0  10 3.2 0  0 3.4 0  0.2 3.4 0  0.4 3.4 0  0.6 3.4 0  0.8 3.4 0  1 
[...]
<PointData  Scalars="f_14"> 
<DataArray  type="Float64"  Name="f_14"  format="ascii">9.9896666182904259e-01  9.9888975833428928e-01  9.9869969609727038e-01  9.9845115779031701e-01  9.9818415451066023e-01  9.9792400453535346e-01  9.9768483919520556e-01  9.9747318040490185e-01  9.9729076203032008e-01  9.9713653347009301e-01  9.9700799434649268e-01  9.9690203644802344e-01  9.9681544543766576e-01  9.9674517825854481e-01  9.9668849877267762e-01  9.9664302776259484e-01  9.9660674410965222e-01  9.9657796050255787e-01  9.9655528797758730e-01  9.9653759768384331e-01  9.9652398451930835e-01  9.9651373497950180e-01  9.9650630019993469e-01  9.9650127441715264e-01  9.9649837869725599e-01  9.9649744964016618e-01  9.9649843276966843e-01  9.9650138040376013e-01  9.9650645392742876e-01  9.9651393053146942e-01  9.9652421461049689e-01  9.9653785410126394e-01  9.9655556204865081e-01  9.9657824355085101e-01  9.9660702786355959e-01  9.9664330468989604e-01  9.9668876232395565e-01  9.9674542301247326e-01  9.9681566715070491e-01  9.9690223201891759e-01  9.9700816171206541e-01  9.9713667145321438e-01  9.9729087016448237e-01  9.9747325876371629e-01  9.9768488826091584e-01  9.9792402514940315e-01  9.9818414796329458e-01  9.9845112613632492e-01  9.9869964276722878e-01  9.9888968905778885e-01  9.9896658631161273e-01  9.9888979058956329e-01  9.9885973813549145e-01  9.9873841322508727e-01  9.9854965566897347e-01  9.9832970687044231e-01  9.9810542994310814e-01  9.9789332184309099e-01  9.9770203165173366e-01  9.9753497859832052e-01  9.9739238716875200e-01  9.9727270332684415e-01  9.9717351662533715e-01  9.9709212704381922e-01  9.9702587178076374e-01  9.9697229718868330e-01  9.9692923507776576e-01  9.9689482285363429e-01  9.9686749288615994e-01  9.9684594691229289e-01  9.9682912494354936e-01  9.9681617408751544e-01  9.9680642016330356e-01  9.9679934347013777e-01  9.9679455919845739e-01  9.9679180251612587e-01  9.9679091816286369e-01  9.9679185434350259e-01  9.9679466075979484e-01  9.9679949071763752e-01  9.9680660735907167e-01  9.9681639416734469e-01  9.9682936994581439e-01  9.9684620843321337e-01  9.9686776252293019e-01  9.9689509260132114e-01  9.9692949765350591e-01  9.9697254626619658e-01  9.9702610212823950e-01  9.9709233456753021e-01  9.9717369832912794e-01  9.9727285720360415e-01  9.9739251204433654e-01  9.9753507395189212e-01  9.9770209744044203e-01  9.9789335836506754e-01  9.9810543778391991e-01  9.9832968699232560e-01  9.9854960972912299e-01  9.9873834426307917e-01  9.9885965169014523e-01  9.9888969674241423e-01  9.9869981998367552e-01  9.9873850303492440e-01  9.9874506125303386e-01  9.9868078721961751e-01  9.9856409156281967e-01  9.9842060565424151e-01  9.9827023030479634e-01  9.9812568482816966e-01  9.9799395724299111e-01  9.9787810434468693e-01  9.9777872811558244e-01  9.9769502914163155e-01  9.9762550250619209e-01  9.9756837087849393e-01  9.9752183805151751e-01  9.9748422585540120e-01  9.9745403860011761e-01  9.9742998460442955e-01  9.9741097389359989e-01  9.9739610398514278e-01  9.9738464094939194e-01  9.9737599989523362e-01  9.9736972713990124e-01  9.9736548518486923e-01  9.9736304097069362e-01  9.9736225754368735e-01  9.9736308911862837e-01  9.9736557948609106e-01  9.9736986373673375e-01  9.9737617331757256e-01  9.9738484446048969e-01  9.9739632999044525e-01  9.9741121437593161e-01  9.9743023154841948e-01  9.9745428437242811e-01  9.9748446351425879e-01  9.9752206156810741e-01  9.9756857526260911e-01  9.9762568383783057e-01  9.9769518451811667e-01  9.9777885552979972e-01  9.9787820251446369e-01  9.9799402541531468e-01  9.9812572258651422e-01  9.9827023741543375e-01  9.9842058200086603e-01  9.9856403725215237e-01  9.9868070295414446e-01  9.9874494926954105e-01  9.9873836878761002e-01  9.9869967536415005e-01  9.9845143030903794e-01  9.9854988984793924e-01  9.9868092673599540e-01  9.9875002335805219e-01  9.9875098034147358e-01  9.9870306100081518e-01  9.9862735671994540e-01  9.9854009083530204e-01  9.9845195550985577e-01  9.9836920575525823e-01  9.9829499222996443e-01  9.9823047153177147e-01  9.9817561271064137e-01  9.9812974016873024e-01  9.9809187922922260e-01  9.9806096484670492e-01  9.9803596010999973e-01  9.9801591773523612e-01  9.9800000703265390e-01  9.9798752103132382e-01  9.9797787305707719e-01  9.9797058846809061e-01  9.9796529493017838e-01  9.9796171315510118e-01  9.9795964913901969e-01  9.9795898842254549e-01  9.9795969261038031e-01  9.9796179824342379e-01  9.9796541804352246e-01  9.9797074450102863e-01  9.9797805570321019e-01  9.9798772315772799e-01  9.9800022108423792e-01  9.9801613613459172e-01  9.9803617561978397e-01  9.9806117086664448e-01  9.9809207000788547e-01  9.9812991091982739e-01  9.9817575963337823e-01  9.9823059174336926e-01  9.9829508362525854e-01  9.9836926681339788e-01  9.9845198507264521e-01  9.9854008788764770e-01  9.9862732021394640e-01  9.9870298978687722e-01  9.9875087331136347e-01  9.9874987998927223e-01  9.9868074838142362e-01  9.9854968236979225e-01  9.9845120860779890e-01  9.9818463753948283e-01  9.9833014418757282e-01  9.9856442229311004e-01  9.9875116290679278e-01  9.9886138412799408e-01  9.9890562890466450e-01  9.9890383861205301e-01  9.9887426352320297e-01  9.9883052349220336e-01  9.9878171331393006e-01  9.9873339238899228e-01  9.9868863693774423e-01  9.9864889734244311e-01  9.9861462198876971e-01  9.9858568204775278e-01  9.9856164702949968e-01  9.9854195601049844e-01  9.9852601926964324e-01  9.9851327522293298e-01  9.9850321966348010e-01  9.9849541853313606e-01  9.9848951142872833e-01  9.9848521034667426e-01  9.9848229641223218e-01  9.9848061622587103e-01  9.9848007877006517e-01  9.9848065339840608e-01  9.9848236916623501e-01  9.9848531558066822e-01  9.9848964469069024e-01  9.9849557425465074e-01  9.9850339145686384e-01  9.9851345622177334e-01  9.9852620248528423e-01  9.9854213467215258e-01  9.9856181487576146e-01  9.9858583354249952e-01  9.9861475244373810e-01  9.9864900293987613e-01  9.9868871465739129e-01  9.9873343985292706e-01  9.9878172856986436e-01  9.9883050476248625e-01  9.9887420895543422e-01  9.9890374608325727e-01  9.9890549596290534e-01  9.9886120821845459e-01  9.9875094214050342e-01  9.9856415726164971e-01  9.9832984157626858e-01  9.9818431619013381e-01  9.9792477108882360e-01  9.9810613965291262e-01  9.9842118813226965e-01  9.9870347548525007e-01  9.9890584874174804e-01  9.9903037044980048e-01  9.9909460470202927e-01  9.9911753418676008e-01  9.9911473784410765e-01  9.9909751188029761e-01  9.9907342626985218e-01  9.9904723341461910e-01  9.9902171587713884e-01  9.9899835298767892e-01  9.9897780200096231e-01  9.9896022720214228e-01  9.9894551621780991e-01  9.9893341740730079e-01  9.9892362421915903e-01  9.9891582502737786e-01  9.9890973113778270e-01  9.9890509140042594e-01  9.9890169890704594e-01  9.9889939327190957e-01  9.9889806070320986e-01  9.9889763324153680e-01  9.9889808799879931e-01  9.9889944685101184e-01  9.9890177673628877e-01  9.9890519042663906e-01  9.9890984733109955e-01  9.9891595349386653e-01  9.9892375939513434e-01  9.9893355332508138e-01  9.9894564681185416e-01  9.9896034661183775e-01  9.9897790482497806e-01  9.9899843445332637e-01  9.9902177190312169e-01  9.9904726056221416e-01  9.9907342159263446e-01  9.9909747269465976e-01  9.9911466145335770e-01  9.9911741760441197e-01  9.9909444444216733e-01  9.9903016249554333e-01  9.9890558888538639e-01  9.9870316038367357e-01  9.9842081769907298e-01  9.9810572179716006e-01  9.9792432930167929e-01  9.9768597865618103e-01  9.9789438893425197e-01  9.9827113932255984e-01  9.9862806479146482e-01  9.9890432548990638e-01  9.9909485680698107e-01  9.9921458333053670e-01  9.9928243191540844e-01  9.9931514593885840e-01  9.9932558955434447e-01  9.9932288492304155e-01  9.9931314290754680e-01  9.9930026137069572e-01  9.9928660240199640e-01  9.9927350703002527e-01  9.9926166262592575e-01  9.9925135439644597e-01  9.9924263218144127e-01  9.9923541815563377e-01  9.9922957459583583e-01  9.9922494530123562e-01  9.9922137996908178e-01  9.9921874775634212e-01  9.9921694416242990e-01  9.9921589398516963e-01  9.9921555219240688e-01  9.9921590391978476e-01  9.9921696430832296e-01  9.9921877844415752e-01  9.9922142121090551e-01  9.9922499638709661e-01  9.9922963378236207e-01  9.9923548253438532e-01  9.9924269775568997e-01  9.9925141633543624e-01  9.9926171562349053e-01  9.9927354567849513e-01  9.9928662150098679e-01  9.9930025611516959e-01  9.9931310893018654e-01  9.9932281819441859e-01  9.9932548616683670e-01  9.9931500181795863e-01  9.9928224252036923e-01  9.9921434343497817e-01  9.9909456050418954e-01  9.9890396666917780e-01  9.9862763851637371e-01  9.9827064487149975e-01  9.9789383574483304e-01  9.9768539567767078e-01  9.9747480299354696e-01  9.9770356124842963e-01  9.9812701382895863e-01  9.9854117105281093e-01  9.9887507960416366e-01  9.9911808347071096e-01  9.9928271172880379e-01  9.9938747538467720e-01  9.9944974752893245e-01  9.9948345334618738e-01  9.9949885584549181e-01  9.9950311392423019e-01  9.9950101452197271e-01  9.9949563997962110e-01  9.9948889866500013e-01  9.9948191735238667e-01  9.9947531848302740e-01  9.9946940995594946e-01  9.9946431187811924e-01  9.9946003935452099e-01  9.9945655524393195e-01  9.9945380264140216e-01  9.9945172380309844e-01  9.9945027015937293e-01  9.9944940672223992e-01  9.9944911331469166e-01  9.9944938438760123e-01  9.9945022856602828e-01  9.9945166839098409e-01  9.9945373999046128e-01  9.9945649166633432e-01  9.9945997964866051e-01  9.9946425850244303e-01  9.9946936273264342e-01  9.9947527479065978e-01  9.9948187265898469e-01  9.9948884720890141e-01  9.9949557541940703e-01  9.9950093042769750e-01  9.9950300404556269e-01  9.9949871414989611e-01  9.9948327386326485e-01  9.9944952406666432e-01  9.9938720120799895e-01  9.9928237932486463e-01  9.9911768458841910e-01  9.9887460587527255e-01  9.9854061572249975e-01  9.9812637550927463e-01  9.9770285121255486e-01  9.9747405651647125e-01  9.9729300273574051e-01  9.9753709981612637e-01  9.9799582205617265e-01  9.9845350700904201e-01  9.9883174965174804e-01  9.9911564611212800e-01  9.9931574778007026e-01  9.9945004962946904e-01  9.9953623664613689e-01  9.9958893319349751e-01  9.9961921692308908e-01  9.9963502959823025e-01  9.9964184279855750e-01  9.9964330570652604e-01  9.9964178035390883e-01  9.9963874919060114e-01  9.9963511065035260e-01  9.9963138665830464e-01  9.9962786485878341e-01  9.9962469399866405e-01  9.9962194618399824e-01  9.9961965576105583e-01  9.9961784169197965e-01  9.9961651845134525e-01  9.9961569941097717e-01  9.9961539604876892e-01  9.9961561574515712e-01  9.9961636014697719e-01  9.9961762499215867e-01  9.9961940100300628e-01  9.9962167418625736e-01  9.9962442281224739e-01  9.9962760751441593e-01  9.9963115017722626e-01  9.9963489622581103e-01  9.9963855320023409e-01  9.9964159577064704e-01  9.9964312351607310e-01  9.9964165314981446e-01  9.9963482255162406e-01  9.9961898278033778e-01  9.9958866247416733e-01  9.9953591982425727e-01  9.9944967677344643e-01  9.9931530827372472e-01  9.9911512870244756e-01  9.9883114320435162e-01  9.9845280261094060e-01  9.9799501755722742e-01  9.9753620864062698e-01  9.9729206752737187e-01  9.9713955562405954e-01  9.9739525659410500e-01  9.9788064648844876e-01  9.9837135137000765e-01  9.9878345209228958e-01  9.9909886042238327e-01  9.9932657258020630e-01  9.9948409364116264e-01  9.9958924756669498e-01  9.9965711531798918e-01  9.9969934729182619e-01  9.9972445740475235e-01  9.9973843047358857e-01  9.9974534810687810e-01  9.9974792264659462e-01  9.9974791379339611e-01  9.9974643753565962e-01  9.9974418796508280e-01  9.9974159290587572e-01  9.9973892065537173e-01  9.9973635070190903e-01  9.9973401749616075e-01  9.9973203378087649e-01  9.9973049869956621e-01  9.9972949559969282e-01  9.9972908453491560e-01  9.9972929426876700e-01  9.9973011756939467e-01  9.9973151165009777e-01  9.9973340311634840e-01  9.9973569437989673e-01  9.9973826678457711e-01  9.9974097486247437e-01  9.9974362591756194e-01  9.9974593888156726e-01  9.9974747540496234e-01  9.9974753394730931e-01  9.9974499413689744e-01  9.9973809438994699e-01  9.9972412216918927e-01  9.9969899654159733e-01  9.9965673356569618e-01  9.9958881994699933e-01  9.9948360544914605e-01  9.9932600886878475e-01  9.9909820598714383e-01  9.9878269231730521e-01  9.9837047470533979e-01  9.9787964985857724e-01  9.9739415593023151e-01  9.9713840219852456e-01  9.9701199289323927e-01  9.9727650818738622e-01  9.9778211776119929e-01  9.9829788119803120e-01  9.9873577036529548e-01  9.9907531775185721e-01  9.9932432634756541e-01  9.9949988407060208e-01  9.9961986562658778e-01  9.9969964996878935e-01  9.9975128596141882e-01  9.9978369747048590e-01  9.9980324316851588e-01  9.9981432218778599e-01  9.9981990455814806e-01  9.9982195388116568e-01  9.9982174736006157e-01  9.9982011099610735e-01  9.9981758895400918e-01  9.9981456266580937e-01  9.9981133069158412e-01  9.9980815653789878e-01  9.9980528952215675e-01  9.9980296365760524e-01  9.9980138099494609e-01  9.9980068777072972e-01  9.9980095259521706e-01  9.9980215456905119e-01  9.9980418542129723e-01  9.9980686449559786e-01  9.9980996043066450e-01  9.9981321028560899e-01  9.9981632625818762e-01  9.9981898141135550e-01  9.9982076753775240e-01  9.9982111898381842e-01  9.9981919503133709e-01  9.9981371025198096e-01  9.9980269796860155e-01  9.9978318849361281e-01  9.9975078481671509e-01  9.9969913088466844e-01  9.9961930511124930e-01  9.9949926017711144e-01  9.9932361796381008e-01  9.9907450436517342e-01  9.9873483289242226e-01  9.9829680480468308e-01  9.9778089821174853e-01  9.9727516433430552e-01  9.9701058617247384e-01  9.9690724086477556e-01  9.9717847761085376e-01  9.9769946771619022e-01  9.9823428178729667e-01  9.9869180655969214e-01  9.9904979295832885e-01  9.9931513782470272e-01  9.9950459118092450e-01  9.9963603458359884e-01  9.9972503986947503e-01  9.9978392785083470e-01  9.9982190652197023e-01  9.9984559336006984e-01  9.9985960385816586e-01  9.9986707845809386e-01  9.9987011075728349e-01  9.9987007921558535e-01  9.9986789818514454e-01  9.9986420532140541e-01  9.9985949830866150e-01  9.9985422825335524e-01  9.9984885260127432e-01  9.9984384882755450e-01  9.9983969233978232e-01  9.9983680747881210e-01  9.9983550689267031e-01  9.9983593841455476e-01  9.9983805685801053e-01  9.9984163014663618e-01  9.9984627739426235e-01  9.9985152550890355e-01  9.9985686477785174e-01  9.9986178422581451e-01  9.9986577266648735e-01  9.9986827777044174e-01  9.9986861979168107e-01  9.9986585707700781e-01  9.9985859729456383e-01  9.9984474313605776e-01  9.9982115687563877e-01  9.9978322888344162e-01  9.9972434828103807e-01  9.9963531292478824e-01  9.9950380643621184e-01  9.9931426000511558e-01  9.9904879432895222e-01  9.9869066223638370e-01  9.9823297280047518e-01  9.9769798835634294e-01  9.9717685014308832e-01  9.9690553875709986e-01  9.9682212217470423e-01  9.9709850065142169e-01  9.9763122481677280e-01  9.9818055265506200e-01  9.9865303810320394e-01  9.9902509119561855e-01  9.9930292106382890e-01  9.9950300845305007e-01  9.9964321796252131e-01  9.9973924016054372e-01  9.9980357106264484e-01  9.9984559948848606e-01  9.9987209959914713e-01  9.9988780515334275e-01  9.9989593384358344e-01  9.9989862244368666e-01  9.9989727400341832e-01  9.9989283215625102e-01  9.9988599783493259e-01  9.9987739727581226e-01  9.9986770156075977e-01  9.9985769093993127e-01  9.9984825555741352e-01  9.9984033066980860e-01  9.9983477872106308e-01  9.9983224794357495e-01  9.9983304905851933e-01  9.9983709002077359e-01  9.9984389114546768e-01  9.9985267540881706e-01  9.9986250312380365e-01  9.9987240738885685e-01  9.9988149026905848e-01  9.9988895478437168e-01  9.9989406530874436e-01  9.9989604101987151e-01  9.9989389022666642e-01  9.9988618893160464e-01  9.9987079869175544e-01  9.9984451146296471e-01  9.9980260800674392e-01  9.9973832915917205e-01  9.9964229909023439e-01  9.9950203178089758e-01  9.9930184377608866e-01  9.9902387567957363e-01  9.9865165190550320e-01  9.9817897158097191e-01  9.9762944128433462e-01  9.9709654092786770e-01  9.9682007402829231e-01  9.9675363250217708e-01  9.9703395199186440e-01  9.9757564657121311e-01  9.9813604973297188e-01  9.9861994074815874e-01  9.9900271332246193e-01  9.9929005075991995e-01  9.9949821673183126e-01  9.9964504121990005e-01  9.9974627439705388e-01  9.9981450526302040e-01  9.9985920836954179e-01  9.9988721096200173e-01  9.9990325401679525e-01  9.9991051440462064e-01  9.9991104958211141e-01  9.9990616791876585e-01  9.9989674143974305e-01  9.9988347560204982e-01  9.9986713910933367e-01  9.9984874063825813e-01  9.9982962497629468e-01  9.9981145676154548e-01  9.9979607363115075e-01  9.9978522407319559e-01  9.9978024921703879e-01  9.9978180153536134e-01  9.9978969466090606e-01  9.9980293866464609e-01  9.9981994885653813e-01  9.9983885491896174e-01  9.9985780954512959e-01  9.9987520976607924e-01  9.9988978529213068e-01  9.9990055211525608e-01  9.9990665762711173e-01  9.9990714993801866e-01  9.9990069410728766e-01  9.9988524119009414e-01  9.9985764134160016e-01  9.9981318683796871e-01  9.9974508226053505e-01  9.9964387962458834e-01  9.9949701008738290e-01  9.9928873779149296e-01  9.9900124293901671e-01  9.9861827064315800e-01  9.9813414913454768e-01  9.9757350554654067e-01  9.9703160152767489e-01  9.9675117741256980e-01  9.9669907529017565e-01  9.9698241624115236e-01  9.9753097217417031e-01  9.9809982999384239e-01  9.9859241224618345e-01  9.9898333555685981e-01  9.9927787463578255e-01  9.9949211090606316e-01  9.9964381998191509e-01  9.9974875583348100e-01  9.9981951929281732e-01  9.9986556848556785e-01  9.9989366024312853e-01  9.9990839510539509e-01  9.9991273496137312e-01  9.9990845940097350e-01  9.9989657086132067e-01  9.9987767261086780e-01  9.9985233755533420e-01  9.9982146401179939e-01  9.9978658152788924e-01  9.9975003575986965e-01  9.9971496478181421e-01  9.9968500203613908e-01  9.9966371521100994e-01  9.9965389926201254e-01  9.9965693524842814e-01  9.9967244236001029e-01  9.9969835869828350e-01  9.9973142246084967e-01  9.9976787448238047e-01  9.9980414270144169e-01  9.9983731624852468e-01  9.9986532654524896e-01  9.9988685913630160e-01  9.9990107941315576e-01  9.9990726161252041e-01  9.9990438233272605e-01  9.9989070168367244e-01  9.9986332477584150e-01  9.9981772291224602e-01  9.9974720346053814e-01  9.9964235967250181e-01  9.9949062867166405e-01  9.9927628294711923e-01  9.9898156512217207e-01  9.9859040806619959e-01  9.9809755311815407e-01  9.9752840979139823e-01  9.9697960494991711e-01  9.9669614026723585e-01  9.9665611056653602e-01  9.9694176307594540e-01  9.9749555827426883e-01  9.9807085897427039e-01  9.9857004654345216e-01  9.9896713680110105e-01  9.9926707815581872e-01  9.9948578775391039e-01  9.9964095945240894e-01  9.9974828891862400e-01  9.9982029559845687e-01  9.9986629431829532e-01  9.9989280347591114e-01  9.9990406357107386e-01  9.9990254058621930e-01  9.9988939120236608e-01  9.9986491646152575e-01  9.9982904758117674e-01  9.9978189739895329e-01  9.9972437134016501e-01  9.9965876302851608e-01  9.9958917622493504e-01  9.9952155566737522e-01  9.9946313376735241e-01  9.9942125529992099e-01  9.9940180912167353e-01  9.9940775439973384e-01  9.9943830255262966e-01  9.9948910234104926e-01  9.9955335875353468e-01  9.9962343516652752e-01  9.9969235696213410e-01  9.9975478638463833e-01  9.9980733073356176e-01  9.9984829849453083e-01  9.9987713320740101e-01  9.9989374048730517e-01  9.9989784191500675e-01  9.9988840109771071e-01  9.9986310561279101e-01  9.9981786306337861e-01  9.9974627925862636e-01  9.9963913445184449e-01  9.9948397716051951e-01  9.9926515784144854e-01  9.9896501337473176e-01  9.9856764898308026e-01  9.9806813838863573e-01  9.9749249847603294e-01  9.9693840742021655e-01  9.9665260859691263e-01  9.9662275468195038e-01  9.9691016596323145e-01  9.9746794203142108e-01  9.9804812786730390e-01  9.9855230345042645e-01  9.9895401300336151e-01  9.9925793318663270e-01  9.9947981849518930e-01  9.9963724140074517e-01  9.9974576182972719e-01  9.9981769838307999e-01  9.9986204930362887e-01  9.9988484830664681e-01  9.9988963164965694e