<?xml version="1.0"?>
<VTKFile type="UnstructuredGrid"  version="0.1"  >
<UnstructuredGrid>
<Piece  NumberOfPoints="5101" NumberOfCells="10000">
<Points>
<DataArray  type="Float64"  NumberOfComponents="3"  format="ascii">0 0 0  0.2 0 0  0.4 0 0  0.6 0 0  0.8 0 0  1 0 0  1.2 0 0  1.4 0 0  1.6 0 0  1.8 0 0  2 0 0  2.2 0 0  2.4 0 0  2.6 0 0  2.8 0 0  3 0 0  3.2 0 0  3.4 0 0  3.6 0 0  3.8 0 0  4 0 0  4.2 0 0  4.4 0 0  4.6 0 0  4.8 0 0  5 0 0  5.2 0 0  5.4 0 0  5.6 0 0  5.8 0 0  6 0 0  6.2 0 0  6.4 0 0  6.6 0 0  6.8 0 0  7 0 0  7.2 0 0  7.4 0 0  7.6 0 0  7.8 0 0  8 0 0  8.199999999999999 0 0  8.4 0 0  8.6 0 0  8.800000000000001 0 0  9 0 0  9.199999999999999 0 0  9.4 0 0  9.6 0 0  9.800000000000001 0 0  10 0 0  0 0.2 0  0.2 0.2 0  0.4 0.2 0  0.6 0.2 0  0.8 0.2 0  1 0.2 0  1.2 0.2 0  1.4 0.2 0  1.6 0.2 0  1.8 0.2 0  2 0.2 0  2.2 0.2 0  2.4 0.2 0  2.6 0.2 0  2.8 0.2 0  3 0.2 0  3.2 0.2 0  3.4 0.2 0  3.6 0.2 0  3.8 0.2 0  4 0.2 0  4.2 0.2 0  4.4 0.2 0  4.6 0.2 0  4.8 0.2 0  5 0.2 0  5.2 0.2 0  5.4 0.2 0  5.6 0.2 0  5.8 0.2 0  6 0.2 0  6.2 0.2 0  6.4 0.2 0  6.6 0.2 0  6.8 0.2 0  7 0.2 0  7.2 0.2 0  7.4 0.2 0  7.6 0.2 0  7.8 0.2 0  8 0.2 0  8.199999999999999 0.2 0  8.4 0.2 0  8.6 0.2 0  8.800000000000001 0.2 0  9 0.2 0  9.199999999999999 0.2 0  9.4 0.2 0  9.6 0.2 0  9.800000000000001 0.2 0  10 0.2 0  0 0.4 0  0.2 0.4 0  0.4 0.4 0  0.6 0.4 0  0.8 0.4 0  1 0.4 0  1.2 0.4 0  1.4 0.4 0  1.6 0.4 0  1.8 0.4 0  2 0.4 0  2.2 0.4 0  2.4 0.4 0  2.6 0.4 0  2.8 0.4 0  3 0.4 0  3.2 0.4 0  3.4 0.4 0  3.6 0.4 0  3.8 0.4 0  4 0.4 0  4.2 0.4 0  4.4 0.4 0  4.6 0.4 0  4.8 0.4 0  5 0.4 0  5.2 0.4 0  5.4 0.4 0  5.6 0.4 0  5.8 0.4 0  6 0.4 0  6.2 0.4 0  6.4 0.4 0  6.6 0.4 0  6.8 0.4 0  7 0.4 0  7.2 0.4 0  7.4 0.4 0  7.6 0.4 0  7.8 0.4 0  8 0.4 0  8.199999999999999 0.4 0  8.4 0.4 0  8.6 0.4 0  8.800000000000001 0.4 0  9 0.4 0  9.199999999999999 0.4 0  9.4 0.4 0  9.6 0.4 0  9.800000000000001 0.4 0  10 0.4 0  0 0.6 0  0.2 0.6 0  0.4 0.6 0  0.6 0.6 0  0.8 0.6 0  1 0.6 0  1.2 0.6 0  1.4 0.6 0  1.6 0.6 0  1.8 0.6 0  2 0.6 0  2.2 0.6 0  2.4 0.6 0  2.6 0.6 0  2.8 0.6 0  3 0.6 0  3.2 0.6 0  3.4 0.6 0  3.6 0.6 0  3.8 0.6 0  4 0.6 0  4.2 0.6 0  4.4 0.6 0  4.6 0.6 0  4.8 0.6 0  5 0.6 0  5.2 0.6 0  5.4 0.6 0  5.6 0.6 0  5.8 0.6 0  6 0.6 0  6.2 0.6 0  6.4 0.6 0  6.6 0.6 0  6.8 0.6 0  7 0.6 0  7.2 0.6 0  7.4 0.6 0  7.6 0.6 0  7.8 0.6 0  8 0.6 0  8.199999999999999 0.6 0  8.4 0.6 0  8.6 0.6 0  8.800000000000001 0.6 0  9 0.6 0  9.199999999999999 0.6 0  9.4 0.6 0  9.6 0.6 0  9.800000000000001 0.6 0  10 0.6 0  0 0.8 0  0.2 0.8 0  0.4 0.8 0  0.6 0.8 0  0.8 0.8 0  1 0.8 0  1.2 0.8 0  1.4 0.8 0  1.6 0.8 0  1.8 0.8 0  2 0.8 0  2.2 0.8 0  2.4 0.8 0  2.6 0.8 0  2.8 0.8 0  3 0.8 0  3.2 0.8 0  3.4 0.8 0  3.6 0.8 0  3.8 0.8 0  4 0.8 0  4.2 0.8 0  4.4 0.8 0  4.6 0.8 0  4.8 0.8 0  5 0.8 0  5.2 0.8 0  5.4 0.8 0  5.6 0.8 0  5.8 0.8 0  6 0.8 0  6.2 0.8 0  6.4 0.8 0  6.6 0.8 0  6.8 0.8 0  7 0.8 0  7.2 0.8 0  7.4 0.8 0  7.6 0.8 0  7.8 0.8 0  8 0.8 0  8.199999999999999 0.8 0  8.4 0.8 0  8.6 0.8 0  8.800000000000001 0.8 0  9 0.8 0  9.199999999999999 0.8 0  9.4 0.8 0  9.6 0.8 0  9.800000000000001 0.8 0  10 0.8 0  0 1 0  0.2 1 0  0.4 1 0  0.6 1 0  0.8 1 0  1 1 0  1.2 1 0  1.4 1 0  1.6 1 0  1.8 1 0  2 1 0  2.2 1 0  2.4 1 0  2.6 1 0  2.8 1 0  3 1 0  3.2 1 0  3.4 1 0  3.6 1 0  3.8 1 0  4 1 0  4.2 1 0  4.4 1 0  4.6 1 0  4.8 1 0  5 1 0  5.2 1 0  5.4 1 0  5.6 1 0  5.8 1 0  6 1 0  6.2 1 0  6.4 1 0  6.6 1 0  6.8 1 0  7 1 0  7.2 1 0  7.4 1 0  7.6 1 0  7.8 1 0  8 1 0  8.199999999999999 1 0  8.4 1 0  8.6 1 0  8.800000000000001 1 0  9 1 0  9.199999999999999 1 0  9.4 1 0  9.6 1 0  9.800000000000001 1 0  10 1 0  0 1.2 0  0.2 1.2 0  0.4 1.2 0  0.6 1.2 0  0.8 1.2 0  1 1.2 0  1.2 1.2 0  1.4 1.2 0  1.6 1.2 0  1.8 1.2 0  2 1.2 0  2.2 1.2 0  2.4 1.2 0  2.6 1.2 0  2.8 1.2 0  3 1.2 0  3.2 1.2 0  3.4 1.2 0  3.6 1.2 0  3.8 1.2 0  4 1.2 0  4.2 1.2 0  4.4 1.2 0  4.6 1.2 0  4.8 1.2 0  5 1.2 0  5.2 1.2 0  5.4 1.2 0  5.6 1.2 0  5.8 1.2 0  6 1.2 0  6.2 1.2 0  6.4 1.2 0  6.6 1.2 0  6.8 1.2 0  7 1.2 0  7.2 1.2 0  7.4 1.2 0  7.6 1.2 0  7.8 1.2 0  8 1.2 0  8.199999999999999 1.2 0  8.4 1.2 0  8.6 1.2 0  8.800000000000001 1.2 0  9 1.2 0  9.199999999999999 1.2 0  9.4 1.2 0  9.6 1.2 0  9.800000000000001 1.2 0  10 1.2 0  0 1.4 0  0.2 1.4 0  0.4 1.4 0  0.6 1.4 0  0.8 1.4 0  1 1.4 0  1.2 1.4 0  1.4 1.4 0  1.6 1.4 0  1.8 1.4 0  2 1.4 0  2.2 1.4 0  2.4 1.4 0  2.6 1.4 0  2.8 1.4 0  3 1.4 0  3.2 1.4 0  3.4 1.4 0  3.6 1.4 0  3.8 1.4 0  4 1.4 0  4.2 1.4 0  4.4 1.4 0  4.6 1.4 0  4.8 1.4 0  5 1.4 0  5.2 1.4 0  5.4 1.4 0  5.6 1.4 0  5.8 1.4 0  6 1.4 0  6.2 1.4 0  6.4 1.4 0  6.6 1.4 0  6.8 1.4 0  7 1.4 0  7.2 1.4 0  7.4 1.4 0  7.6 1.4 0  7.8 1.4 0  8 1.4 0  8.199999999999999 1.4 0  8.4 1.4 0  8.6 1.4 0  8.800000000000001 1.4 0  9 1.4 0  9.199999999999999 1.4 0  9.4 1.4 0  9.6 1.4 0  9.800000000000001 1.4 0  10 1.4 0  0 1.6 0  0.2 1.6 0  0.4 1.6 0  0.6 1.6 0  0.8 1.6 0  1 1.6 0  1.2 1.6 0  1.4 1.6 0  1.6 1.6 0  1.8 1.6 0  2 1.6 0  2.2 1.6 0  2.4 1.6 0  2.6 1.6 0  2.8 1.6 0  3 1.6 0  3.2 1.6 0  3.4 1.6 0  3.6 1.6 0  3.8 1.6 0  4 1.6 0  4.2 1.6 0  4.4 1.6 0  4.6 1.6 0  4.8 1.6 0  5 1.6 0  5.2 1.6 0  5.4 1.6 0  5.6 1.6 0  5.8 1.6 0  6 1.6 0  6.2 1.6 0  6.4 1.6 0  6.6 1.6 0  6.8 1.6 0  7 1.6 0  7.2 1.6 0  7.4 1.6 0  7.6 1.6 0  7.8 1.6 0  8 1.6 0  8.199999999999999 1.6 0  8.4 1.6 0  8.6 1.6 0  8.800000000000001 1.6 0  9 1.6 0  9.199999999999999 1.6 0  9.4 1.6 0  9.6 1.6 0  9.800000000000001 1.6 0  10 1.6 0  0 1.8 0  0.2 1.8 0  0.4 1.8 0  0.6 1.8 0  0.8 1.8 0  1 1.8 0  1.2 1.8 0  1.4 1.8 0  1.6 1.8 0  1.8 1.8 0  2 1.8 0  2.2 1.8 0  2.4 1.8 0  2.6 1.8 0  2.8 1.8 0  3 1.8 0  3.2 1.8 0  3.4 1.8 0  3.6 1.8 0  3.8 1.8 0  4 1.8 0  4.2 1.8 0  4.4 1.8 0  4.6 1.8 0  4.8 1.8 0  5 1.8 0  5.2 1.8 0  5.4 1.8 0  5.6 1.8 0  5.8 1.8 0  6 1.8 0  6.2 1.8 0  6.4 1.8 0  6.6 1.8 0  6.8 1.8 0  7 1.8 0  7.2 1.8 0  7.4 1.8 0  7.6 1.8 0  7.8 1.8 0  8 1.8 0  8.199999999999999 1.8 0  8.4 1.8 0  8.6 1.8 0  8.800000000000001 1.8 0  9 1.8 0  9.199999999999999 1.8 0  9.4 1.8 0  9.6 1.8 0  9.800000000000001 1.8 0  10 1.8 0  0 2 0  0.2 2 0  0.4 2 0  0.6 2 0  0.8 2 0  1 2 0  1.2 2 0  1.4 2 0  1.6 2 0  1.8 2 0  2 2 0  2.2 2 0  2.4 2 0  2.6 2 0  2.8 2 0  3 2 0  3.2 2 0  3.4 2 0  3.6 2 0  3.8 2 0  4 2 0  4.2 2 0  4.4 2 0  4.6 2 0  4.8 2 0  5 2 0  5.2 2 0  5.4 2 0  5.6 2 0  5.8 2 0  6 2 0  6.2 2 0  6.4 2 0  6.6 2 0  6.8 2 0  7 2 0  7.2 2 0  7.4 2 0  7.6 2 0  7.8 2 0  8 2 0  8.199999999999999 2 0  8.4 2 0  8.6 2 0  8.800000000000001 2 0  9 2 0  9.199999999999999 2 0  9.4 2 0  9.6 2 0  9.800000000000001 2 0  10 2 0  0 2.2 0  0.2 2.2 0  0.4 2.2 0  0.6 2.2 0  0.8 2.2 0  1 2.2 0  1.2 2.2 0  1.4 2.2 0  1.6 2.2 0  1.8 2.2 0  2 2.2 0  2.2 2.2 0  2.4 2.2 0  2.6 2.2 0  2.8 2.2 0  3 2.2 0  3.2 2.2 0  3.4 2.2 0  3.6 2.2 0  3.8 2.2 0  4 2.2 0  4.2 2.2 0  4.4 2.2 0  4.6 2.2 0  4.8 2.2 0  5 2.2 0  5.2 2.2 0  5.4 2.2 0  5.6 2.2 0  5.8 2.2 0  6 2.2 0  6.2 2.2 0  6.4 2.2 0  6.6 2.2 0  6.8 2.2 0  7 2.2 0  7.2 2.2 0  7.4 2.2 0  7.6 2.2 0  7.8 2.2 0  8 2.2 0  8.199999999999999 2.2 0  8.4 2.2 0  8.6 2.2 0  8.800000000000001 2.2 0  9 2.2 0  9.199999999999999 2.2 0  9.4 2.2 0  9.6 2.2 0  9.800000000000001 2.2 0  10 2.2 0  0 2.4 0  0.2 2.4 0  0.4 2.4 0  0.6 2.4 0  0.8 2.4 0  1 2.4 0  1.2 2.4 0  1.4 2.4 0  1.6 2.4 0  1.8 2.4 0  2 2.4 0  2.2 2.4 0  2.4 2.4 0  2.6 2.4 0  2.8 2.4 0  3 2.4 0  3.2 2.4 0  3.4 2.4 0  3.6 2.4 0  3.8 2.4 0  4 2.4 0  4.2 2.4 0  4.4 2.4 0  4.6 2.4 0  4.8 2.4 0  5 2.4 0  5.2 2.4 0  5.4 2.4 0  5.6 2.4 0  5.8 2.4 0  6 2.4 0  6.2 2.4 0  6.4 2.4 0  6.6 2.4 0  6.8 2.4 0  7 2.4 0  7.2 2.4 0  7.4 2.4 0  7.6 2.4 0  7.8 2.4 0  8 2.4 0  8.199999999999999 2.4 0  8.4 2.4 0  8.6 2.4 0  8.800000000000001 2.4 0  9 2.4 0  9.199999999999999 2.4 0  9.4 2.4 0  9.6 2.4 0  9.800000000000001 2.4 0  10 2.4 0  0 2.6 0  0.2 2.6 0  0.4 2.6 0  0.6 2.6 0  0.8 2.6 0  1 2.6 0  1.2 2.6 0  1.4 2.6 0  1.6 2.6 0  1.8 2.6 0  2 2.6 0  2.2 2.6 0  2.4 2.6 0  2.6 2.6 0  2.8 2.6 0  3 2.6 0  3.2 2.6 0  3.4 2.6 0  3.6 2.6 0  3.8 2.6 0  4 2.6 0  4.2 2.6 0  4.4 2.6 0  4.6 2.6 0  4.8 2.6 0  5 2.6 0  5.2 2.6 0  5.4 2.6 0  5.6 2.6 0  5.8 2.6 0  6 2.6 0  6.2 2.6 0  6.4 2.6 0  6.6 2.6 0  6.8 2.6 0  7 2.6 0  7.2 2.6 0  7.4 2.6 0  7.6 2.6 0  7.8 2.6 0  8 2.6 0  8.199999999999999 2.6 0  8.4 2.6 0  8.6 2.6 0  8.800000000000001 2.6 0  9 2.6 0  9.199999999999999 2.6 0  9.4 2.6 0  9.6 2.6 0  9.800000000000001 2.6 0  10 2.6 0  0 2.8 0  0.2 2.8 0  0.4 2.8 0  0.6 2.8 0  0.8 2.8 0  1 2.8 0  1.2 2.8 0  1.4 2.8 0  1.6 2.8 0  1.8 2.8 0  2 2.8 0  2.2 2.8 0  2.4 2.8 0  2.6 2.8 0  2.8 2.8 0  3 2.8 0  3.2 2.8 0  3.4 2.8 0  3.6 2.8 0  3.8 2.8 0  4 2.8 0  4.2 2.8 0  4.4 2.8 0  4.6 2.8 0  4.8 2.8 0  5 2.8 0  5.2 2.8 0  5.4 2.8 0  5.6 2.8 0  5.8 2.8 0  6 2.8 0  6.2 2.8 0  6.4 2.8 0  6.6 2.8 0  6.8 2.8 0  7 2.8 0  7.2 2.8 0  7.4 2.8 0  7.6 2.8 0  7.8 2.8 0  8 2.8 0  8.199999999999999 2.8 0  8.4 2.8 0  8.6 2.8 0  8.800000000000001 2.8 0  9 2.8 0  9.199999999999999 2.8 0  9.4 2.8 0  9.6 2.8 0  9.800000000000001 2.8 0  10 2.8 0  0 3 0  0.2 3 0  0.4 3 0  0.6 3 0  0.8 3 0  1 3 0  1.2 3 0  1.4 3 0  1.6 3 0  1.8 3 0  2 3 0  2.2 3 0  2.4 3 0  2.6 3 0  2.8 3 0  3 3 0  3.2 3 0  3.4 3 0  3.6 3 0  3.8 3 0  4 3 0  4.2 3 0  4.4 3 0  4.6 3 0  4.8 3 0  5 3 0  5.2 3 0  5.4 3 0  5.6 3 0  5.8 3 0  6 3 0  6.2 3 0  6.4 3 0  6.6 3 0  6.8 3 0  7 3 0  7.2 3 0  7.4 3 0  7.6 3 0  7.8 3 0  8 3 0  8.199999999999999 3 0  8.4 3 0  8.6 3 0  8.800000000000001 3 0  9 3 0  9.199999999999999 3 0  9.4 3 0  9.6 3 0  9.800000000000001 3 0  10 3 0  0 3.2 0  0.2 3.2 0  0.4 3.2 0  0.6 3.2 0  0.8 3.2 0  1 3.2 0  1.2 3.2 0  1.4 3.2 0  1.6 3.2 0  1.8 3.2 0  2 3.2 0  2.2 3.2 0  2.4 3.2 0  2.6 3.2 0  2.8 3.2 0  3 3.2 0  3.2 3.2 0  3.4 3.2 0  3.6 3.2 0  3.8 3.2 0  4 3.2 0  4.2 3.2 0  4.4 3.2 0  4.6 3.2 0  4.8 3.2 0  5 3.2 0  5.2 3.2 0  5.4 3.2 0  5.6 3.2 0  5.8 3.2 0  6 3.2 0  6.2 3.2 0  6.4 3.2 0  6.6 3.2 0  6.8 3.2 0  7 3.2 0  7.2 3.2 0  7.4 3.2 0  7.6 3.2 0  7.8 3.2 0  8 3.2 0  8.199999999999999 3.2 0  8.4 3.2 0  8.6 3.2 0  8.800000000000001 3.2 0  9 3.2 0  9.199999999999999 3.2 0  9.4 3.2 0  9.6 3.2 0  9.800000000000001 3.2 0  10 3.2 0  0 3.4 0  0.2 3.4 0  0.4 3.4 0  0.6 3.4 0  0.8 3.4 0  1 
[...]
<PointData  Scalars="f_14"> 
<DataArray  type="Float64"  Name="f_14"  format="ascii">9.7383270600831384e-01  9.7194798215610989e-01  9.6720422192882660e-01  9.6082146133560042e-01  9.5372056797015092e-01  9.4653021110218283e-01  9.3965134503926651e-01  9.3331935378002950e-01  9.2765361432093241e-01  9.2269468175763669e-01  9.1843163347912626e-01  9.1482185624750634e-01  9.1180512085694998e-01  9.0931335515643641e-01  9.0727719829380193e-01  9.0563017811286772e-01  9.0431117144121720e-01  9.0326566298610211e-01  9.0244620066452763e-01  9.0181234740882765e-01  9.0133034897435749e-01  9.0097267241685286e-01  9.0071751928672561e-01  9.0054837961020928e-01  9.0045366558451967e-01  9.0042644567261043e-01  9.0046428847641768e-01  9.0056921944622237e-01  9.0074779022375495e-01  9.0101125830037176e-01  9.0137587176099709e-01  9.0186324819682373e-01  9.0250082636599549e-01  9.0332235177422227e-01  9.0436833093882485e-01  9.0568635165771372e-01  9.0733111626948648e-01  9.0936397006570291e-01  9.1185162632686412e-01  9.1486369135478729e-01  9.1846847460875525e-01  9.2272642467185884e-01  9.2768034928622911e-01  9.3334133657393081e-01  9.3966896653770238e-01  9.4654396802223717e-01  9.5373103727947262e-01  9.6082928086765051e-01  9.6721007950628557e-01  9.7195261510388453e-01  9.7383691140546413e-01  9.7194875053842689e-01  9.7117805630021103e-01  9.6809124018631243e-01  9.6317573178238525e-01  9.5725509494152528e-01  9.5098759857103232e-01  9.4482462165817505e-01  9.3904786256896922e-01  9.3381381752824810e-01  9.2919153680733091e-01  9.2519168865442025e-01  9.2178802999393916e-01  9.1893282518942176e-01  9.1656761776145113e-01  9.1463050753172415e-01  9.1306084905841800e-01  9.1180209045241223e-01  9.1080331113920732e-01  9.1001988581363924e-01  9.0941359439898162e-01  9.0895241078706790e-01  9.0861013400545654e-01  9.0836597205808434e-01  9.0820414886956558e-01  9.0811357635328560e-01  9.0808761445448705e-01  9.0812392998468039e-01  9.0822445812841357e-01  9.0839546668922677e-01  9.0864772049112952e-01  9.0899673989064922e-01  9.0946314105829928e-01  9.1007303446133370e-01  9.1085843964702917e-01  9.1185764674766667e-01  9.1311541584078892e-01  9.1468285217420120e-01  9.1661672615848833e-01  9.1897791981151977e-01  9.2182857358431569e-01  9.2522737580369141e-01  9.2922227608119023e-01  9.3383970696816554e-01  9.3906916133057317e-01  9.4484172039250058e-01  9.5100099095943924e-01  9.5726535258814516e-01  9.6318348443373192e-01  9.6809716276071711e-01  9.7118286122170838e-01  9.7195317780259982e-01  9.6720731047810204e-01  9.6809352818651373e-01  9.6813190542741800e-01  9.6631638922665075e-01  9.6302690746844610e-01  9.5887425989578035e-01  9.5437689924185687e-01  9.4990321415765833e-01  9.4568767200306547e-01  9.4186243173390471e-01  9.3848732594763917e-01  9.3557395806077692e-01  9.3310372304936340e-01  9.3104069664421774e-01  9.2934051693655773e-01  9.2795626753876925e-01  9.2684218791108430e-01  9.2595585713465289e-01  9.2525934267449572e-01  9.2471967867999805e-01  9.2430893709506157e-01  9.2400407599023071e-01  9.2378668964872213e-01  9.2364274078842146e-01  9.2356232390689197e-01  9.2353948740556757e-01  9.2357212844799685e-01  9.2366196619845409e-01  9.2381459405967115e-01  9.2403960772255345e-01  9.2435080118633428e-01  9.2476641527186787e-01  9.2530941029375113e-01  9.2600771409016636e-01  9.2689436595762520e-01  9.2800743340933178e-01  9.2938951904832789e-01  9.3108659597970911e-01  9.3314580869584074e-01  9.3561174902717825e-01  9.3852056162035236e-01  9.4189105370256865e-01  9.4571180005360156e-01  9.4992311907805671e-01  9.5439297478958285e-01  9.5888699586662729e-01  9.6303686522461862e-01  9.6632417997104059e-01  9.6813817000916746e-01  9.6809891084821564e-01  9.6721241017877957e-01  9.6082864987867533e-01  9.6318202562658672e-01  9.6632026322161635e-01  9.6788904919711549e-01  9.6765279877818167e-01  9.6604617101203061e-01  9.6359843556941460e-01  9.6074940489001048e-01  9.5781379926285726e-01  9.5499511440083995e-01  9.5241153001557899e-01  9.5012080246751907e-01  9.4814040430874635e-01  9.4646256276190166e-01  9.4506493725160390e-01  9.4391789932137993e-01  9.4298930063483233e-01  9.4224745339381233e-01  9.4166288210789584e-01  9.4120926221373591e-01  9.4086384520485000e-01  9.4060758008568646e-01  9.4042507331931946e-01  9.4030447990638588e-01  9.4023738306451321e-01  9.4021869591312868e-01  9.4024660279413896e-01  9.4032254788893321e-01  9.4045127233934622e-01  9.4064089594110134e-01  9.4090303344204484e-01  9.4125292625418122e-01  9.4170955554124391e-01  9.4229567951242066e-01  9.4303770336666670e-01  9.4396524132377024e-01  9.4511016275625781e-01  9.4650482453122931e-01  9.4817907556065972e-01  9.5015547572533254e-01  9.5244200550482860e-01  9.5502138087836830e-01  9.5783601009740238e-01  9.6076785189277270e-01  9.6361352253902521e-01  9.6605838817730649e-01  9.6766269813611250e-01  9.6789721882985136e-01  9.6632729555051466e-01  9.6318846925013013e-01  9.6083492354895206e-01  9.5373414415714419e-01  9.5726758457816563e-01  9.6303661114597483e-01  9.6765833320859496e-01  9.7031676028223668e-01  9.7121059594474080e-01  9.7082362967583047e-01  9.6963285062930049e-01  9.6801600585638992e-01  9.6624046259042129e-01  9.6448016023104888e-01  9.6283860982362146e-01  9.6136982109815550e-01  9.6009488352869854e-01  9.5901418859662335e-01  9.5811601810647673e-01  9.5738235047636533e-01  9.5679264434608258e-01  9.5632620744824670e-01  9.5596361013996412e-01  9.5568747744682003e-01  9.5548289449469070e-01  9.5533758534597280e-01  9.5524197037754188e-01  9.5518916827132339e-01  9.5517498175852833e-01  9.5519788832881758e-01  9.5525904546358975e-01  9.5536231210472178e-01  9.5551428165478836e-01  9.5572431444054218e-01  9.5600454678097857e-01  9.5636983692966948e-01  9.5683758227763760e-01  9.5742730398827858e-01  9.5815984089474915e-01  9.5905591981809413e-01  9.6013377035989556e-01  9.6140532632147035e-01  9.6287040687725911e-01  9.6450811873382791e-01  9.6626462747716479e-01  9.6803657301204293e-01  9.6965014135309457e-01  9.7083806544520523e-01  9.7122267368988890e-01  9.7032702651093272e-01  9.6766735257717196e-01  9.6304492150600596e-01  9.5727562604089989e-01  9.5374213749081915e-01  9.4655324853232103e-01  9.5100922126861398e-01  9.5889239614862254e-01  9.6605939975915001e-01  9.7121780496597843e-01  9.7433408777183272e-01  9.7581804791364124e-01  9.7615505482163778e-01  9.7576505730301644e-01  9.7496594443435980e-01  9.7397921325729664e-01  9.7294908143210113e-01  9.7196288931135444e-01  9.7106844847135410e-01  9.7028737431948131e-01  9.6962474413174460e-01  9.6907580940940419e-01  9.6863050668643813e-01  9.6827639704714707e-01  9.6800052403268944e-01  9.6779055123029212e-01  9.6763543616125602e-01  9.6752581663555803e-01  9.6745422624610722e-01  9.6741521303555411e-01  9.6740540573556444e-01  9.6742355200960184e-01  9.6747053991366427e-01  9.6754940467794726e-01  9.6766531536331524e-01  9.6782552739961414e-01  9.6803927479846152e-01  9.6831755708624856e-01  9.6867274756324251e-01  9.6911790780275586e-01  9.6966563437769615e-01  9.7032618350535071e-01  9.7110451441376999e-01  9.7199576338819516e-01  9.7297851929706425e-01  9.7400515694127010e-01  9.7498849929756226e-01  9.7578446683315789e-01  9.7617167542822514e-01  9.7583232461681135e-01  9.7434652988664994e-01  9.7122895831818290e-01  9.6606980855201918e-01  9.5890254379938922e-01  9.5101943619021079e-01  9.4656354279231769e-01  9.3968797298839135e-01  9.4485932906353587e-01  9.5440698340814967e-01  9.6362229194242255e-01  9.7084033100673128e-01  9.7582686859196888e-01  9.7891251612691421e-01  9.8057428452365436e-01  9.8125763494703222e-01  9.8131781111516259e-01  9.8101433520752079e-01  9.8052540589545800e-01  9.7996692231263738e-01  9.7940995923142538e-01  9.7889478146183839e-01  9.7844129811178226e-01  9.7805650784766884e-01  9.7773962513801715e-01  9.7748551553588314e-01  9.7728694550052964e-01  9.7713602725743398e-01  9.7702513240664646e-01  9.7694746393782661e-01  9.7689741328925472e-01  9.7687078349405054e-01  9.7686492750297926e-01  9.7687882901923806e-01  9.7691313857116346e-01  9.7697016728861985e-01  9.7705383225208475e-01  9.7716953764849124e-01  9.7732396247255249e-01  9.7752470512417255e-01  9.7777970463804298e-01  9.7809631375128581e-01  9.7847983661981397e-01  9.7893126008412612e-01  9.7944380031611633e-01  9.7999776111101522e-01  9.8055307683941162e-01  9.8103885046131589e-01  9.8133933524951467e-01  9.8127645887110715e-01  9.8059080064369653e-01  9.7892719501695580e-01  9.7584023508379691e-01  9.7085293431964914e-01  9.6363466037055823e-01  9.5441954998727907e-01  9.4487231179431719e-01  9.3970116805033632e-01  9.3337501444273219e-01  9.3910087403670628e-01  9.4994992191848637e-01  9.6078784441724241e-01  9.6966219804909060e-01  9.7617502043628135e-01  9.8058459586852897e-01  9.8335256142000249e-01  9.8493887111626155e-01  9.8572558739487659e-01  9.8600162672426006e-01  9.8597252184120321e-01  9.8577771452467911e-01  9.8550775486621900e-01  9.8521866737120734e-01  9.8494296046737029e-01  9.8469763648564723e-01  9.8448981691281656e-01  9.8432059170400521e-01  9.8418760209695599e-01  9.8408674890838177e-01  9.8401331224350996e-01  9.8396268275362608e-01  9.8393083926738956e-01  9.8391465995115313e-01  9.8391212051370547e-01  9.8392240984041290e-01  9.8394597760613456e-01  9.8398451695114775e-01  9.8404087547118768e-01  9.8411887687201516e-01  9.8422302084508195e-01  9.8435800693502862e-01  9.8452799593159679e-01  9.8473547583930909e-01  9.8497953493252488e-01  9.8525325883758297e-01  9.8553986226294854e-01  9.8580704790355955e-01  9.8599898489291460e-01  9.8602529235609782e-01  9.8574667064246557e-01  9.8495770271086103e-01  9.8336956382864715e-01  9.8060026147499391e-01  9.7618988851580246e-01  9.6967682309207892e-01  9.6080274341590932e-01  9.4996548359145339e-01  9.3911721027194128e-01  9.3339170061308396e-01  9.2773530303141050e-01  9.3389185595143143e-01  9.4575706734150355e-01  9.5787202303585484e-01  9.6806225018548053e-01  9.7579944473518054e-01  9.8128056350723414e-01  9.8495052433802222e-01  9.8727727937868337e-01  9.8866208565329616e-01  9.8941627962599898e-01  9.8976695162018780e-01  9.8987250534267557e-01  9.8983939262199894e-01  9.8973661710796890e-01  9.8960711614811858e-01  9.8947619490699767e-01  9.8935754710657020e-01  9.8925744292656048e-01  9.8917758918509202e-01  9.8911705879444456e-01  9.8907358292752190e-01  9.8904441331169812e-01  9.8902689585948533e-01  9.8901884841232723e-01  9.8901880118485630e-01  9.8902613472517276e-01  9.8904113326922427e-01  9.8906495818232720e-01  9.8909953418783569e-01  9.8914732800575977e-01  9.8921098245702954e-01  9.8929274610746565e-01  9.8939360553061650e-01  9.8951198018957498e-01  9.8964177487596294e-01  9.8976949924821345e-01  9.8987006043029180e-01  9.8990072593168033e-01  9.8979267783078118e-01  9.8943962434544208e-01  9.8868329433750046e-01  9.8729670439318351e-01  9.8496860288755683e-01  9.8129779826659225e-01  9.7581638255785674e-01  9.6807944921452604e-01  9.5788999253531559e-01  9.4577615909900004e-01  9.3391208326859410e-01  9.2775602011491898e-01  9.2281116588255707e-01  9.2930304299830735e-01  9.4196217272645300e-01  9.5507976772898606e-01  9.6630914799515111e-01  9.7501918335062354e-01  9.8135668803403409e-01  9.8575114529444341e-01  9.8867492069044716e-01  9.9054317675268988e-01  9.9168432637698822e-01  9.9234230802345647e-01  9.9269059153529327e-01  9.9284840325428736e-01  9.9289524816251329e-01  9.9288253899125867e-01  9.9284234817500572e-01  9.9279374158922551e-01  9.9274724351876686e-01  9.9270792836733313e-01  9.9267753552053895e-01  9.9265590327475417e-01  9.9264193267399747e-01  9.9263422680066182e-01  9.9263150420216706e-01  9.9263285276276114e-01  9.9263786752090899e-01  9.9264669800476724e-01  9.9266001416711458e-01  9.9267888313228592e-01  9.9270453100672951e-01  9.9273794410881433e-01  9.9277923997146067e-01  9.9282670643365412e-01  9.9287536198452420e-01  9.9291482747841542e-01  9.9292621610569443e-01  9.9287764883390550e-01  9.9271790319397357e-01  9.9236764835663827e-01  9.9170780865341690e-01  9.9056503950068064e-01  9.8869550454935096e-01  9.8577087413794851e-01  9.8137605313365162e-01  9.7503872476723275e-01  9.6632942119578691e-01  9.5510127608944206e-01  9.4198523995610906e-01  9.2932759620240579e-01  9.2283634595699415e-01  9.1859364521178599e-01  9.2534701000758546e-01  9.3862684558638110e-01  9.5253087620803201e-01  9.6457829395687222e-01  9.7405705523755781e-01  9.8107368790912430e-01  9.8604442360082911e-01  9.8944410838819119e-01  9.9169814852749927e-01  9.9314800675394177e-01  9.9405073475686401e-01  9.9459166663363763e-01  9.9490016625899613e-01  9.9506411265396499e-01  9.9514169768181238e-01  9.9517042241576381e-01  9.9517368568575737e-01  9.9516548391754545e-01  9.9515370438399753e-01  9.9514240162631662e-01  9.9513334850948787e-01  9.9512707002028356e-01  9.9512350632646640e-01  9.9512241102266163e-01  9.9512356533820900e-01  9.9512687119981413e-01  9.9513236749911993e-01  9.9514019011686339e-01  9.9515046749605451e-01  9.9516311368984167e-01  9.9517745357764453e-01  9.9519159032521964e-01  9.9520139813405550e-01  9.9519898564073606e-01  9.9517041912995174e-01  9.9509241647264690e-01  9.9492762742524476e-01  9.9461802411970546e-01  9.9407588732575014e-01  9.9317199759906960e-01  9.9172114549904322e-01  9.8946638534068865e-01  9.8606634578025076e-01  9.8109570031550009e-01  9.7407966727704243e-01  9.6460204613387168e-01  9.5255626562930173e-01  9.3865417885093161e-01  9.2537614770359000e-01  9.1862353587052115e-01  9.1504225365048097e-01  9.2199957818532674e-01  9.3576461602497407e-01  9.5028486961177261e-01  9.6297480608502051e-01  9.7305874265731385e-01  9.8061109958448334e-01  9.8603711232971392e-01  9.8981303638111673e-01  9.9237191859330443e-01  9.9406521387212787e-01  9.9516013485858446e-01  9.9585127107134463e-01  9.9627592145904553e-01  9.9652852504075062e-01  9.9667258228124289e-01  9.9674985168614427e-01  9.9678716166357573e-01  9.9680132896979601e-01  9.9680264860622159e-01  9.9679732945752175e-01  9.9678915050834827e-01  9.9678053054066207e-01  9.9677315090997531e-01  9.9676824657761576e-01  9.9676667542937281e-01  9.9676887322589369e-01  9.9677478415781662e-01  9.9678381648628522e-01  9.9679481474659870e-01  9.9680598080848748e-01  9.9681463201312803e-01  9.9681666109787348e-01  9.9680555094028922e-01  9.9677077989371421e-01  9.9669541420195551e-01  9.9655261527182848e-01  9.9630069800816223e-01  9.9587628769570768e-01  9.9518509412014478e-01  9.9408996879768274e-01  9.9239646273768112e-01  9.8983749091320672e-01  9.8606171540225340e-01  9.8063619812958258e-01  9.7308477972816576e-01  9.6300228760199791e-01  9.5031428336568358e-01  9.3579626545954830e-01  9.2203328725546196e-01  9.1507681840583266e-01  9.1209901001356519e-01  9.1921519611711011e-01  9.3335892250804897e-01  9.4836110047396938e-01  9.6155441643456252e-01  9.7211316661956670e-01  9.8008627493320055e-01  9.8586998208538235e-01  9.8994130356089238e-01  9.9273899349082950e-01  9.9462212110868387e-01  9.9586569101814426e-01  9.9667139466594168e-01  9.9718259533697229e-01  9.9749870438685073e-01  9.9768720451996917e-01  9.9779302872483822e-01  9.9784559498360836e-01  9.9786396442952219e-01  9.9786056565340087e-01  9.9784382921966319e-01  9.9781996673314566e-01  9.9779404428339769e-01  9.9777046185864771e-01  9.9775296273174074e-01  9.9774434201256568e-01  9.9774606306281344e-01  9.9775798148768235e-01  9.9777829789596384e-01  9.9780373085220242e-01  9.9782977020917862e-01  9.9785078830130347e-01  9.9785977099318457e-01  9.9784746132655822e-01  9.9780074240263528e-01  9.9770008482272909e-01  9.9751583172135383e-01  9.9720300212881363e-01  9.9669419754827182e-01  9.9589016540455011e-01  9.9464773136479456e-01  9.9276539584926837e-01  9.8996833720139521e-01  9.8589765872777224e-01  9.8011477012667325e-01  9.7214280681299481e-01  9.6158564446268990e-01  9.4839438857828484e-01  9.3339458882096238e-01  9.1925307124053313e-01  9.1213780301497915e-01  9.0969816439228968e-01  9.1693766498937390e-01  9.3137595802494921e-01  9.4675375245563542e-01  9.6034001757613141e-01  9.7126980413497122e-01  9.7957182693995182e-01  9.8563499024519452e-01  9.8993661427674884e-01  9.9291964923018050e-01  9.9494886449273534e-01  9.9630509630255382e-01  9.9719529730655598e-01  9.9776723053832606e-01  9.9812379613233315e-01  9.9833514877245233e-01  9.9844826524530572e-01  9.9849424007826537e-01  9.9849376191111738e-01  9.9846118635691294e-01  9.9840749486387670e-01  9.9834228632714150e-01  9.9827484513697307e-01  9.9821431263605254e-01  9.9816907952657541e-01  9.9814568377983093e-01  9.9814765152144136e-01  9.9817474375418003e-01  9.9822290753517162e-01  9.9828492376593758e-01  9.9835143484964606e-01  9.9841186497004497e-01  9.9845476327536153e-01  9.9846724485987060e-01  9.9843336203250133e-01  9.9833131743860004e-01  9.9812940161466557e-01  9.9778042809632106e-01  9.9721431215265011e-01  9.9632838401256663e-01  9.9497518073028046e-01  9.9294806278243553e-01  9.8996649285947769e-01  9.8566597928324129e-01  9.7960383039714138e-01  9.7130296405772332e-01  9.6037467465592108e-01  9.4679035331431494e-01  9.3141485800607060e-01  9.1697876130208256e-01  9.0974017759923087e-01  9.0777269350619494e-01  9.1510735855169911e-01  9.2977349851162994e-01  9.4544246955830591e-01  9.5933384128536248e-01  9.7055198117734531e-01  9.7910960693293203e-01  9.8538961001863956e-01  9.8986924111418151e-01  9.9299440152308716e-01  9.9513395248802872e-01  9.9657286344389395e-01  9.9752168117485718e-01  9.9813096746616459e-01  9.9850557239126103e-01  9.9871684084453838e-01  9.9881239460407256e-01  9.9882377472994965e-01  9.9877240367850328e-01  9.9867425857886749e-01  9.9854345576649883e-01  9.9839471699678417e-01  9.9824451540628256e-01  9.9811069576279698e-01  9.9801060843707079e-01  9.9795825141949057e-01  9.9796136968769422e-01  9.9801960875235429e-01  9.9812446429838320e-01  9.9826102327748389e-01  9.9841073964460747e-01  9.9855412018959999e-01  9.9867233135903599e-01  9.9874718576804011e-01  9.9875941748187236e-01  9.9868539369048848e-01  9.9849239752362251e-01  9.9813243858692580e-01  9.9753433368409217e-01  9.9659368103641655e-01  9.9516047776831029e-01  9.9302474074731673e-01  9.8990201943607847e-01  9.8542391474372082e-01  9.7914493751109344e-01  9.7058820689835434e-01  9.5937114941742552e-01  9.4548126642220709e-01  9.2981420442819995e-01  9.1515001715326116e-01  9.0781617612179333e-01  9.0625840678566372e-01  9.1366585220606811e-01  9.2850672110166865e-01  9.4439957634939631e-01  9.5852599212320333e-01  9.6996648002409613e-01  9.7872111069085710e-01  9.8516779194411619e-01  9.8978335465181788e-01  9.9301557065929158e-01  9.9523597212860204e-01  9.9673209909148974e-01  9.9771646095371536e-01  9.9834071699444915e-01  9.9870986421984975e-01  9.9889450970083848e-01  9.9894089746032366e-01  9.9887903464034089e-01  9.9872943774775302e-01  9.9850889877587534e-01  9.9823534851087081e-01  9.9793145860222954e-01  9.9762623919501270e-01  9.9735382153340768e-01  9.9714913169915398e-01  9.9704128083077981e-01  9.9704675530114328e-01  9.9716504819522622e-01  9.9737860236726061e-01  9.9765707129197612e-01  9.9796402409739848e-01  9.9826341718578937e-01  9.9852368830824545e-01  9.9871858374263789e-01  9.9882495751291211e-01  9.9881830458434118e-01  9.9866671857245648e-01  9.9832357229898916e-01  9.9771879501760463e-01  9.9674836707890346e-01  9.9526172751041619e-01  9.9304740797788005e-01  9.8981877809115903e-01  9.8520507450425421e-01  9.7875917608677165e-01  9.7000481336555633e-01  9.5856456237381771e-01  9.4443872941653284e-01  9.2854697554537879e-01  9.1370750059211503e-01  9.0630065921184078e-01  9.0509632238871629e-01  9.1255867975383698e-01  9.2753183716758736e-01  9.4359477408298575e-01  9.5790018676875277e-01  9.6951018850562998e-01  9.7841486293058577e-01  9.8498791315681289e-01  9.8970539287454673e-01  9.9301595669273368e-01  9.9529248010207227e-01  9.9682353375392996e-01  9.9782185162355519e-01  9.9843819650288990e