<?xml version="1.0"?>
<VTKFile type="UnstructuredGrid"  version="0.1"  >
<UnstructuredGrid>
<Piece  NumberOfPoints="5101" NumberOfCells="10000">
<Points>
<DataArray  type="Float64"  NumberOfComponents="3"  format="ascii">0 0 0  0.2 0 0  0.4 0 0  0.6 0 0  0.8 0 0  1 0 0  1.2 0 0  1.4 0 0  1.6 0 0  1.8 0 0  2 0 0  2.2 0 0  2.4 0 0  2.6 0 0  2.8 0 0  3 0 0  3.2 0 0  3.4 0 0  3.6 0 0  3.8 0 0  4 0 0  4.2 0 0  4.4 0 0  4.6 0 0  4.8 0 0  5 0 0  5.2 0 0  5.4 0 0  5.6 0 0  5.8 0 0  6 0 0  6.2 0 0  6.4 0 0  6.6 0 0  6.8 0 0  7 0 0  7.2 0 0  7.4 0 0  7.6 0 0  7.8 0 0  8 0 0  8.199999999999999 0 0  8.4 0 0  8.6 0 0  8.800000000000001 0 0  9 0 0  9.199999999999999 0 0  9.4 0 0  9.6 0 0  9.800000000000001 0 0  10 0 0  0 0.2 0  0.2 0.2 0  0.4 0.2 0  0.6 0.2 0  0.8 0.2 0  1 0.2 0  1.2 0.2 0  1.4 0.2 0  1.6 0.2 0  1.8 0.2 0  2 0.2 0  2.2 0.2 0  2.4 0.2 0  2.6 0.2 0  2.8 0.2 0  3 0.2 0  3.2 0.2 0  3.4 0.2 0  3.6 0.2 0  3.8 0.2 0  4 0.2 0  4.2 0.2 0  4.4 0.2 0  4.6 0.2 0  4.8 0.2 0  5 0.2 0  5.2 0.2 0  5.4 0.2 0  5.6 0.2 0  5.8 0.2 0  6 0.2 0  6.2 0.2 0  6.4 0.2 0  6.6 0.2 0  6.8 0.2 0  7 0.2 0  7.2 0.2 0  7.4 0.2 0  7.6 0.2 0  7.8 0.2 0  8 0.2 0  8.199999999999999 0.2 0  8.4 0.2 0  8.6 0.2 0  8.800000000000001 0.2 0  9 0.2 0  9.199999999999999 0.2 0  9.4 0.2 0  9.6 0.2 0  9.800000000000001 0.2 0  10 0.2 0  0 0.4 0  0.2 0.4 0  0.4 0.4 0  0.6 0.4 0  0.8 0.4 0  1 0.4 0  1.2 0.4 0  1.4 0.4 0  1.6 0.4 0  1.8 0.4 0  2 0.4 0  2.2 0.4 0  2.4 0.4 0  2.6 0.4 0  2.8 0.4 0  3 0.4 0  3.2 0.4 0  3.4 0.4 0  3.6 0.4 0  3.8 0.4 0  4 0.4 0  4.2 0.4 0  4.4 0.4 0  4.6 0.4 0  4.8 0.4 0  5 0.4 0  5.2 0.4 0  5.4 0.4 0  5.6 0.4 0  5.8 0.4 0  6 0.4 0  6.2 0.4 0  6.4 0.4 0  6.6 0.4 0  6.8 0.4 0  7 0.4 0  7.2 0.4 0  7.4 0.4 0  7.6 0.4 0  7.8 0.4 0  8 0.4 0  8.199999999999999 0.4 0  8.4 0.4 0  8.6 0.4 0  8.800000000000001 0.4 0  9 0.4 0  9.199999999999999 0.4 0  9.4 0.4 0  9.6 0.4 0  9.800000000000001 0.4 0  10 0.4 0  0 0.6 0  0.2 0.6 0  0.4 0.6 0  0.6 0.6 0  0.8 0.6 0  1 0.6 0  1.2 0.6 0  1.4 0.6 0  1.6 0.6 0  1.8 0.6 0  2 0.6 0  2.2 0.6 0  2.4 0.6 0  2.6 0.6 0  2.8 0.6 0  3 0.6 0  3.2 0.6 0  3.4 0.6 0  3.6 0.6 0  3.8 0.6 0  4 0.6 0  4.2 0.6 0  4.4 0.6 0  4.6 0.6 0  4.8 0.6 0  5 0.6 0  5.2 0.6 0  5.4 0.6 0  5.6 0.6 0  5.8 0.6 0  6 0.6 0  6.2 0.6 0  6.4 0.6 0  6.6 0.6 0  6.8 0.6 0  7 0.6 0  7.2 0.6 0  7.4 0.6 0  7.6 0.6 0  7.8 0.6 0  8 0.6 0  8.199999999999999 0.6 0  8.4 0.6 0  8.6 0.6 0  8.800000000000001 0.6 0  9 0.6 0  9.199999999999999 0.6 0  9.4 0.6 0  9.6 0.6 0  9.800000000000001 0.6 0  10 0.6 0  0 0.8 0  0.2 0.8 0  0.4 0.8 0  0.6 0.8 0  0.8 0.8 0  1 0.8 0  1.2 0.8 0  1.4 0.8 0  1.6 0.8 0  1.8 0.8 0  2 0.8 0  2.2 0.8 0  2.4 0.8 0  2.6 0.8 0  2.8 0.8 0  3 0.8 0  3.2 0.8 0  3.4 0.8 0  3.6 0.8 0  3.8 0.8 0  4 0.8 0  4.2 0.8 0  4.4 0.8 0  4.6 0.8 0  4.8 0.8 0  5 0.8 0  5.2 0.8 0  5.4 0.8 0  5.6 0.8 0  5.8 0.8 0  6 0.8 0  6.2 0.8 0  6.4 0.8 0  6.6 0.8 0  6.8 0.8 0  7 0.8 0  7.2 0.8 0  7.4 0.8 0  7.6 0.8 0  7.8 0.8 0  8 0.8 0  8.199999999999999 0.8 0  8.4 0.8 0  8.6 0.8 0  8.800000000000001 0.8 0  9 0.8 0  9.199999999999999 0.8 0  9.4 0.8 0  9.6 0.8 0  9.800000000000001 0.8 0  10 0.8 0  0 1 0  0.2 1 0  0.4 1 0  0.6 1 0  0.8 1 0  1 1 0  1.2 1 0  1.4 1 0  1.6 1 0  1.8 1 0  2 1 0  2.2 1 0  2.4 1 0  2.6 1 0  2.8 1 0  3 1 0  3.2 1 0  3.4 1 0  3.6 1 0  3.8 1 0  4 1 0  4.2 1 0  4.4 1 0  4.6 1 0  4.8 1 0  5 1 0  5.2 1 0  5.4 1 0  5.6 1 0  5.8 1 0  6 1 0  6.2 1 0  6.4 1 0  6.6 1 0  6.8 1 0  7 1 0  7.2 1 0  7.4 1 0  7.6 1 0  7.8 1 0  8 1 0  8.199999999999999 1 0  8.4 1 0  8.6 1 0  8.800000000000001 1 0  9 1 0  9.199999999999999 1 0  9.4 1 0  9.6 1 0  9.800000000000001 1 0  10 1 0  0 1.2 0  0.2 1.2 0  0.4 1.2 0  0.6 1.2 0  0.8 1.2 0  1 1.2 0  1.2 1.2 0  1.4 1.2 0  1.6 1.2 0  1.8 1.2 0  2 1.2 0  2.2 1.2 0  2.4 1.2 0  2.6 1.2 0  2.8 1.2 0  3 1.2 0  3.2 1.2 0  3.4 1.2 0  3.6 1.2 0  3.8 1.2 0  4 1.2 0  4.2 1.2 0  4.4 1.2 0  4.6 1.2 0  4.8 1.2 0  5 1.2 0  5.2 1.2 0  5.4 1.2 0  5.6 1.2 0  5.8 1.2 0  6 1.2 0  6.2 1.2 0  6.4 1.2 0  6.6 1.2 0  6.8 1.2 0  7 1.2 0  7.2 1.2 0  7.4 1.2 0  7.6 1.2 0  7.8 1.2 0  8 1.2 0  8.199999999999999 1.2 0  8.4 1.2 0  8.6 1.2 0  8.800000000000001 1.2 0  9 1.2 0  9.199999999999999 1.2 0  9.4 1.2 0  9.6 1.2 0  9.800000000000001 1.2 0  10 1.2 0  0 1.4 0  0.2 1.4 0  0.4 1.4 0  0.6 1.4 0  0.8 1.4 0  1 1.4 0  1.2 1.4 0  1.4 1.4 0  1.6 1.4 0  1.8 1.4 0  2 1.4 0  2.2 1.4 0  2.4 1.4 0  2.6 1.4 0  2.8 1.4 0  3 1.4 0  3.2 1.4 0  3.4 1.4 0  3.6 1.4 0  3.8 1.4 0  4 1.4 0  4.2 1.4 0  4.4 1.4 0  4.6 1.4 0  4.8 1.4 0  5 1.4 0  5.2 1.4 0  5.4 1.4 0  5.6 1.4 0  5.8 1.4 0  6 1.4 0  6.2 1.4 0  6.4 1.4 0  6.6 1.4 0  6.8 1.4 0  7 1.4 0  7.2 1.4 0  7.4 1.4 0  7.6 1.4 0  7.8 1.4 0  8 1.4 0  8.199999999999999 1.4 0  8.4 1.4 0  8.6 1.4 0  8.800000000000001 1.4 0  9 1.4 0  9.199999999999999 1.4 0  9.4 1.4 0  9.6 1.4 0  9.800000000000001 1.4 0  10 1.4 0  0 1.6 0  0.2 1.6 0  0.4 1.6 0  0.6 1.6 0  0.8 1.6 0  1 1.6 0  1.2 1.6 0  1.4 1.6 0  1.6 1.6 0  1.8 1.6 0  2 1.6 0  2.2 1.6 0  2.4 1.6 0  2.6 1.6 0  2.8 1.6 0  3 1.6 0  3.2 1.6 0  3.4 1.6 0  3.6 1.6 0  3.8 1.6 0  4 1.6 0  4.2 1.6 0  4.4 1.6 0  4.6 1.6 0  4.8 1.6 0  5 1.6 0  5.2 1.6 0  5.4 1.6 0  5.6 1.6 0  5.8 1.6 0  6 1.6 0  6.2 1.6 0  6.4 1.6 0  6.6 1.6 0  6.8 1.6 0  7 1.6 0  7.2 1.6 0  7.4 1.6 0  7.6 1.6 0  7.8 1.6 0  8 1.6 0  8.199999999999999 1.6 0  8.4 1.6 0  8.6 1.6 0  8.800000000000001 1.6 0  9 1.6 0  9.199999999999999 1.6 0  9.4 1.6 0  9.6 1.6 0  9.800000000000001 1.6 0  10 1.6 0  0 1.8 0  0.2 1.8 0  0.4 1.8 0  0.6 1.8 0  0.8 1.8 0  1 1.8 0  1.2 1.8 0  1.4 1.8 0  1.6 1.8 0  1.8 1.8 0  2 1.8 0  2.2 1.8 0  2.4 1.8 0  2.6 1.8 0  2.8 1.8 0  3 1.8 0  3.2 1.8 0  3.4 1.8 0  3.6 1.8 0  3.8 1.8 0  4 1.8 0  4.2 1.8 0  4.4 1.8 0  4.6 1.8 0  4.8 1.8 0  5 1.8 0  5.2 1.8 0  5.4 1.8 0  5.6 1.8 0  5.8 1.8 0  6 1.8 0  6.2 1.8 0  6.4 1.8 0  6.6 1.8 0  6.8 1.8 0  7 1.8 0  7.2 1.8 0  7.4 1.8 0  7.6 1.8 0  7.8 1.8 0  8 1.8 0  8.199999999999999 1.8 0  8.4 1.8 0  8.6 1.8 0  8.800000000000001 1.8 0  9 1.8 0  9.199999999999999 1.8 0  9.4 1.8 0  9.6 1.8 0  9.800000000000001 1.8 0  10 1.8 0  0 2 0  0.2 2 0  0.4 2 0  0.6 2 0  0.8 2 0  1 2 0  1.2 2 0  1.4 2 0  1.6 2 0  1.8 2 0  2 2 0  2.2 2 0  2.4 2 0  2.6 2 0  2.8 2 0  3 2 0  3.2 2 0  3.4 2 0  3.6 2 0  3.8 2 0  4 2 0  4.2 2 0  4.4 2 0  4.6 2 0  4.8 2 0  5 2 0  5.2 2 0  5.4 2 0  5.6 2 0  5.8 2 0  6 2 0  6.2 2 0  6.4 2 0  6.6 2 0  6.8 2 0  7 2 0  7.2 2 0  7.4 2 0  7.6 2 0  7.8 2 0  8 2 0  8.199999999999999 2 0  8.4 2 0  8.6 2 0  8.800000000000001 2 0  9 2 0  9.199999999999999 2 0  9.4 2 0  9.6 2 0  9.800000000000001 2 0  10 2 0  0 2.2 0  0.2 2.2 0  0.4 2.2 0  0.6 2.2 0  0.8 2.2 0  1 2.2 0  1.2 2.2 0  1.4 2.2 0  1.6 2.2 0  1.8 2.2 0  2 2.2 0  2.2 2.2 0  2.4 2.2 0  2.6 2.2 0  2.8 2.2 0  3 2.2 0  3.2 2.2 0  3.4 2.2 0  3.6 2.2 0  3.8 2.2 0  4 2.2 0  4.2 2.2 0  4.4 2.2 0  4.6 2.2 0  4.8 2.2 0  5 2.2 0  5.2 2.2 0  5.4 2.2 0  5.6 2.2 0  5.8 2.2 0  6 2.2 0  6.2 2.2 0  6.4 2.2 0  6.6 2.2 0  6.8 2.2 0  7 2.2 0  7.2 2.2 0  7.4 2.2 0  7.6 2.2 0  7.8 2.2 0  8 2.2 0  8.199999999999999 2.2 0  8.4 2.2 0  8.6 2.2 0  8.800000000000001 2.2 0  9 2.2 0  9.199999999999999 2.2 0  9.4 2.2 0  9.6 2.2 0  9.800000000000001 2.2 0  10 2.2 0  0 2.4 0  0.2 2.4 0  0.4 2.4 0  0.6 2.4 0  0.8 2.4 0  1 2.4 0  1.2 2.4 0  1.4 2.4 0  1.6 2.4 0  1.8 2.4 0  2 2.4 0  2.2 2.4 0  2.4 2.4 0  2.6 2.4 0  2.8 2.4 0  3 2.4 0  3.2 2.4 0  3.4 2.4 0  3.6 2.4 0  3.8 2.4 0  4 2.4 0  4.2 2.4 0  4.4 2.4 0  4.6 2.4 0  4.8 2.4 0  5 2.4 0  5.2 2.4 0  5.4 2.4 0  5.6 2.4 0  5.8 2.4 0  6 2.4 0  6.2 2.4 0  6.4 2.4 0  6.6 2.4 0  6.8 2.4 0  7 2.4 0  7.2 2.4 0  7.4 2.4 0  7.6 2.4 0  7.8 2.4 0  8 2.4 0  8.199999999999999 2.4 0  8.4 2.4 0  8.6 2.4 0  8.800000000000001 2.4 0  9 2.4 0  9.199999999999999 2.4 0  9.4 2.4 0  9.6 2.4 0  9.800000000000001 2.4 0  10 2.4 0  0 2.6 0  0.2 2.6 0  0.4 2.6 0  0.6 2.6 0  0.8 2.6 0  1 2.6 0  1.2 2.6 0  1.4 2.6 0  1.6 2.6 0  1.8 2.6 0  2 2.6 0  2.2 2.6 0  2.4 2.6 0  2.6 2.6 0  2.8 2.6 0  3 2.6 0  3.2 2.6 0  3.4 2.6 0  3.6 2.6 0  3.8 2.6 0  4 2.6 0  4.2 2.6 0  4.4 2.6 0  4.6 2.6 0  4.8 2.6 0  5 2.6 0  5.2 2.6 0  5.4 2.6 0  5.6 2.6 0  5.8 2.6 0  6 2.6 0  6.2 2.6 0  6.4 2.6 0  6.6 2.6 0  6.8 2.6 0  7 2.6 0  7.2 2.6 0  7.4 2.6 0  7.6 2.6 0  7.8 2.6 0  8 2.6 0  8.199999999999999 2.6 0  8.4 2.6 0  8.6 2.6 0  8.800000000000001 2.6 0  9 2.6 0  9.199999999999999 2.6 0  9.4 2.6 0  9.6 2.6 0  9.800000000000001 2.6 0  10 2.6 0  0 2.8 0  0.2 2.8 0  0.4 2.8 0  0.6 2.8 0  0.8 2.8 0  1 2.8 0  1.2 2.8 0  1.4 2.8 0  1.6 2.8 0  1.8 2.8 0  2 2.8 0  2.2 2.8 0  2.4 2.8 0  2.6 2.8 0  2.8 2.8 0  3 2.8 0  3.2 2.8 0  3.4 2.8 0  3.6 2.8 0  3.8 2.8 0  4 2.8 0  4.2 2.8 0  4.4 2.8 0  4.6 2.8 0  4.8 2.8 0  5 2.8 0  5.2 2.8 0  5.4 2.8 0  5.6 2.8 0  5.8 2.8 0  6 2.8 0  6.2 2.8 0  6.4 2.8 0  6.6 2.8 0  6.8 2.8 0  7 2.8 0  7.2 2.8 0  7.4 2.8 0  7.6 2.8 0  7.8 2.8 0  8 2.8 0  8.199999999999999 2.8 0  8.4 2.8 0  8.6 2.8 0  8.800000000000001 2.8 0  9 2.8 0  9.199999999999999 2.8 0  9.4 2.8 0  9.6 2.8 0  9.800000000000001 2.8 0  10 2.8 0  0 3 0  0.2 3 0  0.4 3 0  0.6 3 0  0.8 3 0  1 3 0  1.2 3 0  1.4 3 0  1.6 3 0  1.8 3 0  2 3 0  2.2 3 0  2.4 3 0  2.6 3 0  2.8 3 0  3 3 0  3.2 3 0  3.4 3 0  3.6 3 0  3.8 3 0  4 3 0  4.2 3 0  4.4 3 0  4.6 3 0  4.8 3 0  5 3 0  5.2 3 0  5.4 3 0  5.6 3 0  5.8 3 0  6 3 0  6.2 3 0  6.4 3 0  6.6 3 0  6.8 3 0  7 3 0  7.2 3 0  7.4 3 0  7.6 3 0  7.8 3 0  8 3 0  8.199999999999999 3 0  8.4 3 0  8.6 3 0  8.800000000000001 3 0  9 3 0  9.199999999999999 3 0  9.4 3 0  9.6 3 0  9.800000000000001 3 0  10 3 0  0 3.2 0  0.2 3.2 0  0.4 3.2 0  0.6 3.2 0  0.8 3.2 0  1 3.2 0  1.2 3.2 0  1.4 3.2 0  1.6 3.2 0  1.8 3.2 0  2 3.2 0  2.2 3.2 0  2.4 3.2 0  2.6 3.2 0  2.8 3.2 0  3 3.2 0  3.2 3.2 0  3.4 3.2 0  3.6 3.2 0  3.8 3.2 0  4 3.2 0  4.2 3.2 0  4.4 3.2 0  4.6 3.2 0  4.8 3.2 0  5 3.2 0  5.2 3.2 0  5.4 3.2 0  5.6 3.2 0  5.8 3.2 0  6 3.2 0  6.2 3.2 0  6.4 3.2 0  6.6 3.2 0  6.8 3.2 0  7 3.2 0  7.2 3.2 0  7.4 3.2 0  7.6 3.2 0  7.8 3.2 0  8 3.2 0  8.199999999999999 3.2 0  8.4 3.2 0  8.6 3.2 0  8.800000000000001 3.2 0  9 3.2 0  9.199999999999999 3.2 0  9.4 3.2 0  9.6 3.2 0  9.800000000000001 3.2 0  10 3.2 0  0 3.4 0  0.2 3.4 0  0.4 3.4 0  0.6 3.4 0  0.8 3.4 0  1 
[...]
<PointData  Scalars="f_9"> 
<DataArray  type="Float64"  Name="f_9"  format="ascii">-7.6736347322252062e-03  -3.7571028992405935e-03  -2.0264321733469751e-03  -1.5165230654573417e-03  -1.0820779559354901e-03  -8.1379046087069707e-04  -6.1548025670721111e-04  -4.7141942045864663e-04  -3.6377948484165874e-04  -2.8241768286469651e-04  -2.2029620430119636e-04  -1.7248615237900561e-04  -1.3545127903959888e-04  -1.0660383002945169e-04  -8.4022032080655762e-05  -6.6261193028968306e-05  -5.2223919697448493e-05  -4.1068819828680096e-05  -3.2144955654320119e-05  -2.4943943319874326e-05  -1.9064366533534507e-05  -1.4184897173126137e-05  -1.0043616872038309e-05  -6.4217518230051588e-06  -3.1305071320366485e-06  -3.2166542521738335e-14  3.1305070495860405e-06  6.4217517224935382e-06  1.0043616774880943e-05  1.4184897074819896e-05  1.9064366434881566e-05  2.4943943220577965e-05  3.2144955554862344e-05  4.1068819727408870e-05  5.2223919595178460e-05  6.6261192928546641e-05  8.4022031980245346e-05  1.0660382993075384e-04  1.3545127894027084e-04  1.7248615227949995e-04  2.2029620419969668e-04  2.8241768276302025e-04  3.6377948474250140e-04  4.7141942035696901e-04  6.1548025660667174e-04  8.1379046076979862e-04  1.0820779558334377e-03  1.5165230653549383e-03  2.0264321732468842e-03  3.7571028991410823e-03  7.6736347322085363e-03  -6.1403120302049974e-02  -3.8756907822188956e-02  -2.6215764849098076e-02  -1.8683912399401363e-02  -1.3741683287725801e-02  -1.0304754415953805e-02  -7.8336499277672968e-03  -6.0140817947524619e-03  -4.6518678728851518e-03  -3.6192652367700111e-03  -2.8289392315762689e-03  -2.2193620731328404e-03  -1.7461852625601940e-03  -1.3768666979892968e-03  -1.0871817743488899e-03  -8.5888140453679483e-04  -6.7807640910351723e-04  -5.3409728904554009e-04  -4.1867366845805664e-04  -3.2533348011438225e-04  -2.4895583989014471e-04  -1.8543276150757588e-04  -1.3140847680265328e-04  -8.4074035743207502e-05  -4.1000757135792762e-05  -1.0823238265499101e-14  4.1000757109548300e-05  8.4074035712718869e-05  1.3140847676839125e-04  1.8543276147151046e-04  2.4895583985353478e-04  3.2533348007879570e-04  4.1867366842100609e-04  5.3409728900679482e-04  6.7807640906320790e-04  8.5888140449551416e-04  1.0871817743089065e-03  1.3768666979487366e-03  1.7461852625203233e-03  2.2193620730908896e-03  2.8289392315352046e-03  3.6192652367293891e-03  4.6518678728417542e-03  6.0140817947140091e-03  7.8336499277238299e-03  1.0304754415909612e-02  1.3741683287683132e-02  1.8683912399356958e-02  2.6215764849044896e-02  3.8756907822158189e-02  6.1403120302045103e-02  -9.1369688290291823e-02  -6.3457887922627701e-02  -4.5478741330110747e-02  -3.3243186441800250e-02  -2.4791831682074095e-02  -1.8742867949820469e-02  -1.4324166615687726e-02  -1.1037442435903010e-02  -8.5602296470374227e-03  -6.6734867801044491e-03  -5.2243899943111554e-03  -4.1037514728790164e-03  -3.2320800364942768e-03  -2.5506175129338463e-03  -2.0153813852030384e-03  -1.5930966959891038e-03  -1.2583529165885346e-03  -9.9157714229831072e-04  -7.7756397741262696e-04  -6.0439232390074751e-04  -4.6261513571228618e-04  -3.4464382370217933e-04  -2.4427221386280574e-04  -1.5630034244835920e-04  -7.6228651713494154e-05  -1.2481314603262045e-14  7.6228651686422263e-05  1.5630034241666127e-04  2.4427221382806259e-04  3.4464382366635572e-04  4.6261513567544770e-04  6.0439232385975632e-04  7.7756397737105605e-04  9.9157714225819589e-04  1.2583529165470441e-03  1.5930966959468978e-03  2.0153813851591833e-03  2.5506175128909422e-03  3.2320800364527415e-03  4.1037514728370699e-03  5.2243899942681256e-03  6.6734867800617792e-03  8.5602296469963566e-03  1.1037442435855268e-02  1.4324166615641527e-02  1.8742867949773367e-02  2.4791831682025579e-02  3.3243186441751761e-02  4.5478741330081021e-02  6.3457887922600889e-02  9.1369688290261541e-02  -1.1152607260446795e-01  -8.2282334149370723e-02  -6.1036125795858272e-02  -4.5755083663744443e-02  -3.4635981610366011e-02  -2.6459429653470194e-02  -2.0365870093731163e-02  -1.5774585176787790e-02  -1.2281989476609649e-02  -9.6039024778263003e-03  -7.5365340982560805e-03  -5.9314467073377022e-03  -4.6790402638609710e-03  -3.6974372193400167e-03  -2.9248483868482703e-03  -2.3142278263731781e-03  -1.8294649850078061e-03  -1.4426293397977459e-03  -1.1319480562547444e-03  -8.8030162709342081e-04  -6.7408980595490687e-04  -5.0236439106918565e-04  -3.5615493739496413e-04  -2.2793340992321607e-04  -1.1117731887060165e-04  -8.6158329974733508e-15  1.1117731885073345e-04  2.2793340989965351e-04  3.5615493736904070e-04  5.0236439104155714e-04  6.7408980592570378e-04  8.8030162706481218e-04  1.1319480562266980e-03  1.4426293397636614e-03  1.8294649849752197e-03  2.3142278263411334e-03  2.9248483868175310e-03  3.6974372193102241e-03  4.6790402638266218e-03  5.9314467073043791e-03  7.5365340982234937e-03  9.6039024777935349e-03  1.2281989476575800e-02  1.5774585176757908e-02  2.0365870093697724e-02  2.6459429653433533e-02  3.4635981610326508e-02  4.5755083663719061e-02  6.1036125795845532e-02  8.2282334149355985e-02  1.1152607260444361e-01  -1.2607315221648044e-01  -9.5963355332277400e-02  -7.3132123592647133e-02  -5.5893014798355962e-02  -4.2931278929556435e-02  -3.3142823073303664e-02  -2.5711704660922527e-02  -2.0034661070012005e-02  -1.5671560415605284e-02  -1.2299697714214871e-02  -9.6808765671320181e-03  -7.6378100959754950e-03  -6.0374343731267217e-03  -4.7790796280515451e-03  -3.7860189393119259e-03  -2.9993697428202589e-03  -2.3736461117177961e-03  -1.8734801999117899e-03  -1.4711799061192395e-03  -1.1448900468770343e-03  -8.7719229793876085e-04  -6.5402562831167789e-04  -4.6384096316942234e-04  -2.9692598435492024e-04  -1.4485133302220699e-04  -7.5316514733609890e-15  1.4485133300510517e-04  2.9692598433477018e-04  4.6384096314780866e-04  6.5402562828877314e-04  8.7719229791477992e-04  1.1448900468517700e-03  1.4711799060924892e-03  1.8734801998885906e-03  2.3736461116933166e-03  2.9993697427950277e-03  3.7860189392860889e-03  4.7790796280252918e-03  6.0374343731048694e-03  7.6378100959527719e-03  9.6808765671087104e-03  1.2299697714191456e-02  1.5671560415582115e-02  2.0034661069982120e-02  2.5711704660893481e-02  3.3142823073273216e-02  4.2931278929544146e-02  5.5893014798346644e-02  7.3132123592633325e-02  9.5963355332258762e-02  1.2607315221645718e-01  -1.3685777849447045e-01  -1.0633104014855052e-01  -8.2500220359929072e-02  -6.4035151018218314e-02  -4.9793535465004604e-02  -3.8818650778128419e-02  -3.0348705500164247e-02  -2.3794098332058398e-02  -1.8705001801273265e-02  -1.4740127087795032e-02  -1.1640635978477374e-02  -9.2097372088284554e-03  -7.2972304215671146e-03  -5.7879551963494740e-03  -4.5931935101873661e-03  -3.6442632409810884e-03  -2.8877251686334469e-03  -2.2817768424730905e-03  -1.7935211685897704e-03  -1.3968816024722409e-03  -1.0709965906244244e-03  -7.9896955680942524e-04  -5.6688200484298408e-04  -3.6299965778303591e-04  -1.7711741652333960e-04  -4.0551711396322462e-15  1.7711741651216923e-04  3.6299965776883655e-04  5.6688200482644436e-04  7.9896955679204993e-04  1.0709965906058429e-03  1.3968816024520184e-03  1.7935211685711251e-03  2.2817768424533047e-03  2.8877251686153880e-03  3.6442632409617102e-03  4.5931935101668521e-03  5.7879551963310114e-03  7.2972304215475590e-03  9.2097372088113336e-03  1.1640635978459780e-02  1.4740127087778320e-02  1.8705001801251599e-02  2.3794098332039666e-02  3.0348705500139236e-02  3.8818650778122042e-02  4.9793535464993849e-02  6.4035151018209960e-02  8.2500220359915735e-02  1.0633104014853101e-01  1.3685777849444491e-01  -1.4501190758469013e-01  -1.1421118944098652e-01  -8.9779642450272978e-02  -7.0507653892366906e-02  -5.5386352407452495e-02  -4.3549886519851831e-02  -3.4291524770659866e-02  -2.7045483409886561e-02  -2.1366569380326318e-02  -1.6907663687089194e-02  -1.3399376178506846e-02  -1.0632946874457158e-02  -8.4465151752290395e-03  -6.7143617750361111e-03  -5.3385894997199151e-03  -4.2427292196557465e-03  -3.3668338190373233e-03  -2.6637097128325397e-03  -2.0960130468147880e-03  -1.6340012647256411e-03  -1.2537803903262677e-03  -9.3592620200753278e-04  -6.6438583779386366e-04  -4.2558736514190153e-04  -2.0770017538984393e-04  -6.3190246469804091e-15  2.0770017538031938e-04  4.2558736512998810e-04  6.6438583778073040e-04  9.3592620199291915e-04  1.2537803903119255e-03  1.6340012647104868e-03  2.0960130467976589e-03  2.6637097128177430e-03  3.3668338190214692e-03  4.2427292196403777e-03  5.3385894997056852e-03  6.7143617750199678e-03  8.4465151752156908e-03  1.0632946874441877e-02  1.3399376178492416e-02  1.6907663687074425e-02  2.1366569380316409e-02  2.7045483409867521e-02  3.4291524770658333e-02  4.3549886519847064e-02  5.5386352407451281e-02  7.0507653892360189e-02  8.9779642450260599e-02  1.1421118944096773e-01  1.4501190758466412e-01  -1.5125327121715540e-01  -1.2027990069916382e-01  -9.5453427009814087e-02  -7.5643271651770760e-02  -5.9909665651433089e-02  -4.7449849126702234e-02  -3.7599492825915418e-02  -2.9816981904493872e-02  -2.3667287844419415e-02  -1.8804403082256210e-02  -1.4954889700828497e-02  -1.1903446556976758e-02  -9.4808270579691909e-03  -7.5540155070196718e-03  -6.0183838097632803e-03  -4.7914970529390460e-03  -3.8082501408092323e-03  -3.0170587237617189e-03  -2.3768752626794594e-03  -1.8548457331085723e-03  -1.4244606450084026e-03  -1.0640850709587211e-03  -7.5577679461949650e-04  -4.8432046872782305e-04  -2.3641978926734999e-04  -1.0220639394725634e-15  2.3641978925954493e-04  4.8432046871765697e-04  7.5577679460807606e-04  1.0640850709464061e-03  1.4244606449945721e-03  1.8548457330974642e-03  2.3768752626678958e-03  3.0170587237467500e-03  3.8082501407924675e-03  4.7914970529263868e-03  6.0183838097536014e-03  7.5540155070097188e-03  9.4808270579557537e-03  1.1903446556963475e-02  1.4954889700816756e-02  1.8804403082247331e-02  2.3667287844402547e-02  2.9816981904493906e-02  3.7599492825916271e-02  4.7449849126706321e-02  5.9909665651430445e-02  7.5643271651763794e-02  9.5453427009802194e-02  1.2027990069914456e-01  1.5125327121712986e-01  -1.5607546805329897e-01  -1.2498532586625070e-01  -9.9894402446966554e-02  -7.9715684552733201e-02  -6.3551496158958887e-02  -5.0639774039969755e-02  -4.0347160593665728e-02  -3.2152451305003424e-02  -2.5631729539256947e-02  -2.0443217928932590e-02  -1.6313176017177987e-02  -1.3023341215304988e-02  -1.0400171119322031e-02  -8.3058784996563086e-03  -6.6311021748171762e-03  -5.2889922068515473e-03  -4.2104757557170133e-03  -3.3404857689569223e-03  -2.6349623387804588e-03  -2.0584669092456628e-03  -1.5822779921273542e-03  -1.1828617388861332e-03  -8.4063111682244429e-04  -5.3892372239429333e-04  -2.6314086914887421e-04  -3.4522528213091627e-15  2.6314086914328044e-04  5.3892372238721002e-04  8.4063111681342785e-04  1.1828617388753961e-03  1.5822779921170075e-03  2.0584669092319915e-03  2.6349623387676912e-03  3.3404857689467216e-03  4.2104757557099876e-03  5.2889922068411642e-03  6.6311021748044954e-03  8.3058784996453451e-03  1.0400171119315212e-02  1.3023341215299342e-02  1.6313176017172446e-02  2.0443217928922224e-02  2.5631729539261735e-02  3.2152451305007566e-02  4.0347160593668316e-02  5.0639774039968964e-02  6.3551496158956083e-02  7.9715684552726998e-02  9.9894402446954494e-02  1.2498532586623171e-01  1.5607546805327233e-01  -1.5982734907312021e-01  -1.2865641422529336e-01  -1.0338311350631248e-01  -8.2947234953783963e-02  -6.6476599891427596e-02  -5.3235698391692184e-02  -4.2613022621304938e-02  -3.4103297408990110e-02  -2.7292630177349102e-02  -2.1844396961564570e-02  -1.7486434513383747e-02  -1.3999684517369772e-02  -1.1208394393131434e-02  -8.9718447113082862e-03  -7.1774834051634134e-03  -5.7352989528712062e-03  -4.5732496745551649e-03  -3.6335722092492111e-03  -2.8698091465670511e-03  -2.2444169658048891e-03  -1.7268368875196221e-03  -1.2919308790532312e-03  -9.1870196830319605e-04  -5.8923196843889110e-04  -2.8778079519269344e-04  5.9476262408469312e-16  2.8778079519089280e-04  5.8923196843329044e-04  9.1870196829601657e-04  1.2919308790453436e-03  1.7268368875110252e-03  2.2444169657962506e-03  2.8698091465569541e-03  3.6335722092412075e-03  4.5732496745457835e-03  5.7352989528626636e-03  7.1774834051568726e-03  8.9718447113017481e-03  1.1208394393125794e-02  1.3999684517366152e-02  1.7486434513384053e-02  2.1844396961569451e-02  2.7292630177346386e-02  3.4103297408992671e-02  4.2613022621307652e-02  5.3235698391693308e-02  6.6476599891424876e-02  8.2947234953777635e-02  1.0338311350629940e-01  1.2865641422527410e-01  1.5982734907309540e-01  -1.6276247816908324e-01  -1.3153433153674565e-01  -1.0613263609873173e-01  -8.5514342427595910e-02  -6.8823150139665973e-02  -5.5341035965371342e-02  -4.4471710681444968e-02  -3.5721843487554056e-02  -2.8685824167649816e-02  -2.3032002694891029e-02  -1.8490537887809206e-02  -1.4842763830902611e-02  -1.1912036456376772e-02  -9.5559747661934959e-03  -7.6599714308040658e-03  -6.1318232179917356e-03  -4.8973241615147883e-03  -3.8966694886772126e-03  -3.0815310799466159e-03  -2.4126815378514737e-03  -1.8580609810623031e-03  -1.3911967557117225e-03  -9.8990048314630545e-04  -6.3517887423704194e-04  -3.1030446988142740e-04  9.8875925565304593e-16  3.1030446988013688e-04  6.3517887423366259e-04  9.8990048314172231e-04  1.3911967557054634e-03  1.8580609810548510e-03  2.4126815378462466e-03  3.0815310799400166e-03  3.8966694886688859e-03  4.8973241615055535e-03  6.1318232179845529e-03  7.6599714308009971e-03  9.5559747661901080e-03  1.1912036456377277e-02  1.4842763830910871e-02  1.8490537887809865e-02  2.3032002694886443e-02  2.8685824167655832e-02  3.5721843487558705e-02  4.4471710681449332e-02  5.5341035965372314e-02  6.8823150139663766e-02  8.5514342427588638e-02  1.0613263609871960e-01  1.3153433153672542e-01  1.6276247816905695e-01  -1.6506856587988722e-01  -1.3379916991196011e-01  -1.0830556167252275e-01  -8.7556052393013131e-02  -7.0704493180219374e-02  -5.7044512232275330e-02  -4.5990393387686283e-02  -3.7057577711453252e-02  -2.9846982608938002e-02  -2.4031291633493844e-02  -1.9343103916718687e-02  -1.5564709884348138e-02  -1.2519350317498363e-02  -1.0063817178432325e-02  -8.0822496385269792e-03  -6.4809753478256250e-03  -5.1842496265782226e-03  -4.1307537643159161e-03  -3.2707260972311284e-03  -2.5636139513630384e-03  -1.9761492373501477e-03  -1.4807643430476431e-03  -1.0542773371863801e-03  -6.7678605385371323e-04  -3.3071927596736337e-04  5.2288857948039217e-16  3.3071927596898122e-04  6.7678605385329711e-04  1.0542773371836726e-03  1.4807643430432211e-03  1.9761492373424998e-03  2.5636139513582740e-03  3.2707260972262794e-03  4.1307537643083120e-03  5.1842496265720912e-03  6.4809753478213012e-03  8.0822496385243442e-03  1.0063817178433672e-02  1.2519350317504301e-02  1.5564709884345411e-02  1.9343103916715499e-02  2.4031291633502178e-02  2.9846982608944236e-02  3.7057577711457693e-02  4.5990393387687047e-02  5.7044512232276773e-02  7.0704493180218972e-02  8.7556052393006595e-02  1.0830556167250932e-01  1.3379916991193894e-01  1.6506856587985611e-01  -1.6688656039942149e-01  -1.3558700060804427e-01  -1.1002668124472252e-01  -8.9181668490999844e-02  -7.2212441421521126e-02  -5.8420497661672115e-02  -4.7227484061958785e-02  -3.8155217845340331e-02  -3.0809623312580404e-02  -2.4866955314517537e-02  -2.0062064191336298e-02  -1.6178390337948285e-02  -1.3039475472215425e-02  -1.0501804303434954e-02  -8.4488065776230255e-03  -6.7858613005267986e-03  -5.4361567689441359e-03  -4.3372731116437949e-03  -3.4383680936112093e-03  -2.6978612293608942e-03  -2.0815250274309398e-03  -1.5609048674637852e-03  -1.1120002247769361e-03  -7.1414951951890139e-04  -3.4906872036642034e-04  2.2462807235008868e-15  3.4906872037061620e-04  7.1414951952085122e-04  1.1120002247767872e-03  1.5609048674633625e-03  2.0815250274336247e-03  2.6978612293543369e-03  3.4383680936062584e-03  4.3372731116426760e-03  5.4361567689448836e-03  6.7858613005273285e-03  8.4488065776236829e-03  1.0501804303447515e-02  1.3039475472219725e-02  1.6178390337946498e-02  2.0062064191340673e-02  2.4866955314520697e-02  3.0809623312586309e-02  3.8155217845345896e-02  4.7227484061966050e-02  5.8420497661673239e-02  7.2212441421516574e-02  8.9181668490991489e-02  1.1002668124470798e-01  1.3558700060802292e-01  1.6688656039939417e-01  -1.6832346276947383e-01  -1.3700159085299357e-01  -1.1139230093753037e-01  -9.0477082803892425e-02  -7.3420827020145921e-02  -5.9530416890222163e-02  -4.8232652549579196e-02  -3.9053966238413840e-02  -3.1604061849050229e-02  -2.5562040827084843e-02  -2.0664692982909721e-02  -1.6696599841355960e-02  -1.3481794075527772e-02  -1.0876756877095479e-02  -8.7645632254493115e-03  -7.0500067652087342e-03  -5.6555548155622125e-03  -4.5180013317165646e-03  -3.5857018135458389e-03  -2.8162891808983805e-03  -2.1747833334110509e-03  -1.6320193133382373e-03  -1.1633295843290847e-03  -7.4742488524209795e-04  -3.6542543481821958e-04  5.5504688958873130e-15  3.6542543482708840e-04  7.4742488524904790e-04  1.1633295843342781e-03  1.6320193133408599e-03  2.1747833334092507e-03  2.8162891809041975e-03  3.5857018135465432e-03  4.5180013317184442e-03  5.6555548155601005e-03  7.0500067652151900e-03  8.7645632254704561e-03  1.0876756877096456e-02  1.3481794075520781e-02  1.6696599841353261e-02  2.0664692982915501e-02  2.5562040827095685e-02  3.1604061849057244e-02  3.9053966238418288e-02  4.8232652549579348e-02  5.9530416890222551e-02  7.3420827020144533e-02  9.0477082803884626e-02  1.1139230093751726e-01  1.3700159085297131e-01  1.6832346276944440e-01  -1.6946119633508711e-01  -1.3812266672592777e-01  -1.1247709332944764e-01  -9.1509834951756297e-02  -7.4388768659956389e-02  -6.0424509638860875e-02  -4.9047487237003307e-02  -3.9787471329889031e-02  -3.2256992335153382e-02  -2.6137373348791588e-02  -2.1167007813436993e-02  -1.7131510970898874e-02  -1.3855462751111877e-02  -1.1195502766991028e-02  -9.0345722190452466e-03  -7.2771252200728971e-03  -5.8451556615619132e-03  -4.6749063732368428e-03  -3.7141455207589766e-03  -2.9199112272689496e-03  -2.2566394479310303e-03  -1.6946022732518362e-03  -1.2085941723680113e-03  -7.7681230263136549e-04  -3.7988399786370141e-04  5.8816094565313098e-15  3.7988399787597729e-04  7.7681230264298564e-04  1.2085941723788663e-03  1.6946022732606818e-03  2.2566394479402846e-03  2.9199112272695333e-03  3.7141455207661267e-03  4.6749063732434096e-03  5.8451556615758266e-03  7.2771252200917545e-03  9.0345722190411631e-03  1.1195502766982363e-02  1.3855462751112727e-02  1.7131510970907964e-02  2.1167007813442603e-02  2.6137373348794152e-02  3.2256992335157997e-02  3.9787471329893610e-02  4.9047487237007782e-02  6.0424509638860389e-02  7.4388768659950755e-02  9.1509834951747443e-02  1.1247709332943215e-01  1.3812266672590673e-01  1.6946119633505866e-01  -1.7036289588129072e-01  -1.3901183856579816e-01  -1.1333917918096599e-01  -9.2333081330347413e-02  -7.5163473947920667e-02  -6.1143587637708913e-02  -4.9706424409552426e-02  -4.0384170657831453e-02  -3.2791459232966745e-02  -2.6611323362606257e-02  -2.1583447490144000e-02  -1.7494335069008573e-02  -1.4169096077254358e-02  -1.1464601469050076e-02  -9.2637886618019520e-03  -7.4709331989488226e-03  -6.0077284019184806e-03  -4.8100378481312142e-03  -3.8252053525351711e-03  -3.0098241661169704e-03  -2.3278816474085100e-03  -1.7492079743239100e-03  -1.2481677626409386e-03  -8.0254193130456714e-04  -3.9255396445284741e-04  8.6150369209526689e-15  3.9255396447068557e-04  8.0254193132220429e-04  1.2481677626567259e-03  1.7492079743394208e-03  2.3278816474228228e-03  3.0098241661338284e-03  3.8252053525482648e-03  4.8100378481486178e-03  6.0077284019403685e-03  7.4709331989495963e-03  9.2637886617953739e-03  1.1464601469051306e-02  1.4169096077258329e-02  1.7494335069013031e-02  2.1583447490148504e-02  2.6611323362610639e-02  3.2791459232972817e-02  4.0384170657834617e-02  4.9706424409553897e-02  6.1143587637707483e-02  7.5163473947915199e-02  9.2333081330337949e-