<?xml version="1.0"?>
<VTKFile type="UnstructuredGrid"  version="0.1"  >
<UnstructuredGrid>
<Piece  NumberOfPoints="5101" NumberOfCells="10000">
<Points>
<DataArray  type="Float64"  NumberOfComponents="3"  format="ascii">0 0 0  0.2 0 0  0.4 0 0  0.6 0 0  0.8 0 0  1 0 0  1.2 0 0  1.4 0 0  1.6 0 0  1.8 0 0  2 0 0  2.2 0 0  2.4 0 0  2.6 0 0  2.8 0 0  3 0 0  3.2 0 0  3.4 0 0  3.6 0 0  3.8 0 0  4 0 0  4.2 0 0  4.4 0 0  4.6 0 0  4.8 0 0  5 0 0  5.2 0 0  5.4 0 0  5.6 0 0  5.8 0 0  6 0 0  6.2 0 0  6.4 0 0  6.6 0 0  6.8 0 0  7 0 0  7.2 0 0  7.4 0 0  7.6 0 0  7.8 0 0  8 0 0  8.199999999999999 0 0  8.4 0 0  8.6 0 0  8.800000000000001 0 0  9 0 0  9.199999999999999 0 0  9.4 0 0  9.6 0 0  9.800000000000001 0 0  10 0 0  0 0.2 0  0.2 0.2 0  0.4 0.2 0  0.6 0.2 0  0.8 0.2 0  1 0.2 0  1.2 0.2 0  1.4 0.2 0  1.6 0.2 0  1.8 0.2 0  2 0.2 0  2.2 0.2 0  2.4 0.2 0  2.6 0.2 0  2.8 0.2 0  3 0.2 0  3.2 0.2 0  3.4 0.2 0  3.6 0.2 0  3.8 0.2 0  4 0.2 0  4.2 0.2 0  4.4 0.2 0  4.6 0.2 0  4.8 0.2 0  5 0.2 0  5.2 0.2 0  5.4 0.2 0  5.6 0.2 0  5.8 0.2 0  6 0.2 0  6.2 0.2 0  6.4 0.2 0  6.6 0.2 0  6.8 0.2 0  7 0.2 0  7.2 0.2 0  7.4 0.2 0  7.6 0.2 0  7.8 0.2 0  8 0.2 0  8.199999999999999 0.2 0  8.4 0.2 0  8.6 0.2 0  8.800000000000001 0.2 0  9 0.2 0  9.199999999999999 0.2 0  9.4 0.2 0  9.6 0.2 0  9.800000000000001 0.2 0  10 0.2 0  0 0.4 0  0.2 0.4 0  0.4 0.4 0  0.6 0.4 0  0.8 0.4 0  1 0.4 0  1.2 0.4 0  1.4 0.4 0  1.6 0.4 0  1.8 0.4 0  2 0.4 0  2.2 0.4 0  2.4 0.4 0  2.6 0.4 0  2.8 0.4 0  3 0.4 0  3.2 0.4 0  3.4 0.4 0  3.6 0.4 0  3.8 0.4 0  4 0.4 0  4.2 0.4 0  4.4 0.4 0  4.6 0.4 0  4.8 0.4 0  5 0.4 0  5.2 0.4 0  5.4 0.4 0  5.6 0.4 0  5.8 0.4 0  6 0.4 0  6.2 0.4 0  6.4 0.4 0  6.6 0.4 0  6.8 0.4 0  7 0.4 0  7.2 0.4 0  7.4 0.4 0  7.6 0.4 0  7.8 0.4 0  8 0.4 0  8.199999999999999 0.4 0  8.4 0.4 0  8.6 0.4 0  8.800000000000001 0.4 0  9 0.4 0  9.199999999999999 0.4 0  9.4 0.4 0  9.6 0.4 0  9.800000000000001 0.4 0  10 0.4 0  0 0.6 0  0.2 0.6 0  0.4 0.6 0  0.6 0.6 0  0.8 0.6 0  1 0.6 0  1.2 0.6 0  1.4 0.6 0  1.6 0.6 0  1.8 0.6 0  2 0.6 0  2.2 0.6 0  2.4 0.6 0  2.6 0.6 0  2.8 0.6 0  3 0.6 0  3.2 0.6 0  3.4 0.6 0  3.6 0.6 0  3.8 0.6 0  4 0.6 0  4.2 0.6 0  4.4 0.6 0  4.6 0.6 0  4.8 0.6 0  5 0.6 0  5.2 0.6 0  5.4 0.6 0  5.6 0.6 0  5.8 0.6 0  6 0.6 0  6.2 0.6 0  6.4 0.6 0  6.6 0.6 0  6.8 0.6 0  7 0.6 0  7.2 0.6 0  7.4 0.6 0  7.6 0.6 0  7.8 0.6 0  8 0.6 0  8.199999999999999 0.6 0  8.4 0.6 0  8.6 0.6 0  8.800000000000001 0.6 0  9 0.6 0  9.199999999999999 0.6 0  9.4 0.6 0  9.6 0.6 0  9.800000000000001 0.6 0  10 0.6 0  0 0.8 0  0.2 0.8 0  0.4 0.8 0  0.6 0.8 0  0.8 0.8 0  1 0.8 0  1.2 0.8 0  1.4 0.8 0  1.6 0.8 0  1.8 0.8 0  2 0.8 0  2.2 0.8 0  2.4 0.8 0  2.6 0.8 0  2.8 0.8 0  3 0.8 0  3.2 0.8 0  3.4 0.8 0  3.6 0.8 0  3.8 0.8 0  4 0.8 0  4.2 0.8 0  4.4 0.8 0  4.6 0.8 0  4.8 0.8 0  5 0.8 0  5.2 0.8 0  5.4 0.8 0  5.6 0.8 0  5.8 0.8 0  6 0.8 0  6.2 0.8 0  6.4 0.8 0  6.6 0.8 0  6.8 0.8 0  7 0.8 0  7.2 0.8 0  7.4 0.8 0  7.6 0.8 0  7.8 0.8 0  8 0.8 0  8.199999999999999 0.8 0  8.4 0.8 0  8.6 0.8 0  8.800000000000001 0.8 0  9 0.8 0  9.199999999999999 0.8 0  9.4 0.8 0  9.6 0.8 0  9.800000000000001 0.8 0  10 0.8 0  0 1 0  0.2 1 0  0.4 1 0  0.6 1 0  0.8 1 0  1 1 0  1.2 1 0  1.4 1 0  1.6 1 0  1.8 1 0  2 1 0  2.2 1 0  2.4 1 0  2.6 1 0  2.8 1 0  3 1 0  3.2 1 0  3.4 1 0  3.6 1 0  3.8 1 0  4 1 0  4.2 1 0  4.4 1 0  4.6 1 0  4.8 1 0  5 1 0  5.2 1 0  5.4 1 0  5.6 1 0  5.8 1 0  6 1 0  6.2 1 0  6.4 1 0  6.6 1 0  6.8 1 0  7 1 0  7.2 1 0  7.4 1 0  7.6 1 0  7.8 1 0  8 1 0  8.199999999999999 1 0  8.4 1 0  8.6 1 0  8.800000000000001 1 0  9 1 0  9.199999999999999 1 0  9.4 1 0  9.6 1 0  9.800000000000001 1 0  10 1 0  0 1.2 0  0.2 1.2 0  0.4 1.2 0  0.6 1.2 0  0.8 1.2 0  1 1.2 0  1.2 1.2 0  1.4 1.2 0  1.6 1.2 0  1.8 1.2 0  2 1.2 0  2.2 1.2 0  2.4 1.2 0  2.6 1.2 0  2.8 1.2 0  3 1.2 0  3.2 1.2 0  3.4 1.2 0  3.6 1.2 0  3.8 1.2 0  4 1.2 0  4.2 1.2 0  4.4 1.2 0  4.6 1.2 0  4.8 1.2 0  5 1.2 0  5.2 1.2 0  5.4 1.2 0  5.6 1.2 0  5.8 1.2 0  6 1.2 0  6.2 1.2 0  6.4 1.2 0  6.6 1.2 0  6.8 1.2 0  7 1.2 0  7.2 1.2 0  7.4 1.2 0  7.6 1.2 0  7.8 1.2 0  8 1.2 0  8.199999999999999 1.2 0  8.4 1.2 0  8.6 1.2 0  8.800000000000001 1.2 0  9 1.2 0  9.199999999999999 1.2 0  9.4 1.2 0  9.6 1.2 0  9.800000000000001 1.2 0  10 1.2 0  0 1.4 0  0.2 1.4 0  0.4 1.4 0  0.6 1.4 0  0.8 1.4 0  1 1.4 0  1.2 1.4 0  1.4 1.4 0  1.6 1.4 0  1.8 1.4 0  2 1.4 0  2.2 1.4 0  2.4 1.4 0  2.6 1.4 0  2.8 1.4 0  3 1.4 0  3.2 1.4 0  3.4 1.4 0  3.6 1.4 0  3.8 1.4 0  4 1.4 0  4.2 1.4 0  4.4 1.4 0  4.6 1.4 0  4.8 1.4 0  5 1.4 0  5.2 1.4 0  5.4 1.4 0  5.6 1.4 0  5.8 1.4 0  6 1.4 0  6.2 1.4 0  6.4 1.4 0  6.6 1.4 0  6.8 1.4 0  7 1.4 0  7.2 1.4 0  7.4 1.4 0  7.6 1.4 0  7.8 1.4 0  8 1.4 0  8.199999999999999 1.4 0  8.4 1.4 0  8.6 1.4 0  8.800000000000001 1.4 0  9 1.4 0  9.199999999999999 1.4 0  9.4 1.4 0  9.6 1.4 0  9.800000000000001 1.4 0  10 1.4 0  0 1.6 0  0.2 1.6 0  0.4 1.6 0  0.6 1.6 0  0.8 1.6 0  1 1.6 0  1.2 1.6 0  1.4 1.6 0  1.6 1.6 0  1.8 1.6 0  2 1.6 0  2.2 1.6 0  2.4 1.6 0  2.6 1.6 0  2.8 1.6 0  3 1.6 0  3.2 1.6 0  3.4 1.6 0  3.6 1.6 0  3.8 1.6 0  4 1.6 0  4.2 1.6 0  4.4 1.6 0  4.6 1.6 0  4.8 1.6 0  5 1.6 0  5.2 1.6 0  5.4 1.6 0  5.6 1.6 0  5.8 1.6 0  6 1.6 0  6.2 1.6 0  6.4 1.6 0  6.6 1.6 0  6.8 1.6 0  7 1.6 0  7.2 1.6 0  7.4 1.6 0  7.6 1.6 0  7.8 1.6 0  8 1.6 0  8.199999999999999 1.6 0  8.4 1.6 0  8.6 1.6 0  8.800000000000001 1.6 0  9 1.6 0  9.199999999999999 1.6 0  9.4 1.6 0  9.6 1.6 0  9.800000000000001 1.6 0  10 1.6 0  0 1.8 0  0.2 1.8 0  0.4 1.8 0  0.6 1.8 0  0.8 1.8 0  1 1.8 0  1.2 1.8 0  1.4 1.8 0  1.6 1.8 0  1.8 1.8 0  2 1.8 0  2.2 1.8 0  2.4 1.8 0  2.6 1.8 0  2.8 1.8 0  3 1.8 0  3.2 1.8 0  3.4 1.8 0  3.6 1.8 0  3.8 1.8 0  4 1.8 0  4.2 1.8 0  4.4 1.8 0  4.6 1.8 0  4.8 1.8 0  5 1.8 0  5.2 1.8 0  5.4 1.8 0  5.6 1.8 0  5.8 1.8 0  6 1.8 0  6.2 1.8 0  6.4 1.8 0  6.6 1.8 0  6.8 1.8 0  7 1.8 0  7.2 1.8 0  7.4 1.8 0  7.6 1.8 0  7.8 1.8 0  8 1.8 0  8.199999999999999 1.8 0  8.4 1.8 0  8.6 1.8 0  8.800000000000001 1.8 0  9 1.8 0  9.199999999999999 1.8 0  9.4 1.8 0  9.6 1.8 0  9.800000000000001 1.8 0  10 1.8 0  0 2 0  0.2 2 0  0.4 2 0  0.6 2 0  0.8 2 0  1 2 0  1.2 2 0  1.4 2 0  1.6 2 0  1.8 2 0  2 2 0  2.2 2 0  2.4 2 0  2.6 2 0  2.8 2 0  3 2 0  3.2 2 0  3.4 2 0  3.6 2 0  3.8 2 0  4 2 0  4.2 2 0  4.4 2 0  4.6 2 0  4.8 2 0  5 2 0  5.2 2 0  5.4 2 0  5.6 2 0  5.8 2 0  6 2 0  6.2 2 0  6.4 2 0  6.6 2 0  6.8 2 0  7 2 0  7.2 2 0  7.4 2 0  7.6 2 0  7.8 2 0  8 2 0  8.199999999999999 2 0  8.4 2 0  8.6 2 0  8.800000000000001 2 0  9 2 0  9.199999999999999 2 0  9.4 2 0  9.6 2 0  9.800000000000001 2 0  10 2 0  0 2.2 0  0.2 2.2 0  0.4 2.2 0  0.6 2.2 0  0.8 2.2 0  1 2.2 0  1.2 2.2 0  1.4 2.2 0  1.6 2.2 0  1.8 2.2 0  2 2.2 0  2.2 2.2 0  2.4 2.2 0  2.6 2.2 0  2.8 2.2 0  3 2.2 0  3.2 2.2 0  3.4 2.2 0  3.6 2.2 0  3.8 2.2 0  4 2.2 0  4.2 2.2 0  4.4 2.2 0  4.6 2.2 0  4.8 2.2 0  5 2.2 0  5.2 2.2 0  5.4 2.2 0  5.6 2.2 0  5.8 2.2 0  6 2.2 0  6.2 2.2 0  6.4 2.2 0  6.6 2.2 0  6.8 2.2 0  7 2.2 0  7.2 2.2 0  7.4 2.2 0  7.6 2.2 0  7.8 2.2 0  8 2.2 0  8.199999999999999 2.2 0  8.4 2.2 0  8.6 2.2 0  8.800000000000001 2.2 0  9 2.2 0  9.199999999999999 2.2 0  9.4 2.2 0  9.6 2.2 0  9.800000000000001 2.2 0  10 2.2 0  0 2.4 0  0.2 2.4 0  0.4 2.4 0  0.6 2.4 0  0.8 2.4 0  1 2.4 0  1.2 2.4 0  1.4 2.4 0  1.6 2.4 0  1.8 2.4 0  2 2.4 0  2.2 2.4 0  2.4 2.4 0  2.6 2.4 0  2.8 2.4 0  3 2.4 0  3.2 2.4 0  3.4 2.4 0  3.6 2.4 0  3.8 2.4 0  4 2.4 0  4.2 2.4 0  4.4 2.4 0  4.6 2.4 0  4.8 2.4 0  5 2.4 0  5.2 2.4 0  5.4 2.4 0  5.6 2.4 0  5.8 2.4 0  6 2.4 0  6.2 2.4 0  6.4 2.4 0  6.6 2.4 0  6.8 2.4 0  7 2.4 0  7.2 2.4 0  7.4 2.4 0  7.6 2.4 0  7.8 2.4 0  8 2.4 0  8.199999999999999 2.4 0  8.4 2.4 0  8.6 2.4 0  8.800000000000001 2.4 0  9 2.4 0  9.199999999999999 2.4 0  9.4 2.4 0  9.6 2.4 0  9.800000000000001 2.4 0  10 2.4 0  0 2.6 0  0.2 2.6 0  0.4 2.6 0  0.6 2.6 0  0.8 2.6 0  1 2.6 0  1.2 2.6 0  1.4 2.6 0  1.6 2.6 0  1.8 2.6 0  2 2.6 0  2.2 2.6 0  2.4 2.6 0  2.6 2.6 0  2.8 2.6 0  3 2.6 0  3.2 2.6 0  3.4 2.6 0  3.6 2.6 0  3.8 2.6 0  4 2.6 0  4.2 2.6 0  4.4 2.6 0  4.6 2.6 0  4.8 2.6 0  5 2.6 0  5.2 2.6 0  5.4 2.6 0  5.6 2.6 0  5.8 2.6 0  6 2.6 0  6.2 2.6 0  6.4 2.6 0  6.6 2.6 0  6.8 2.6 0  7 2.6 0  7.2 2.6 0  7.4 2.6 0  7.6 2.6 0  7.8 2.6 0  8 2.6 0  8.199999999999999 2.6 0  8.4 2.6 0  8.6 2.6 0  8.800000000000001 2.6 0  9 2.6 0  9.199999999999999 2.6 0  9.4 2.6 0  9.6 2.6 0  9.800000000000001 2.6 0  10 2.6 0  0 2.8 0  0.2 2.8 0  0.4 2.8 0  0.6 2.8 0  0.8 2.8 0  1 2.8 0  1.2 2.8 0  1.4 2.8 0  1.6 2.8 0  1.8 2.8 0  2 2.8 0  2.2 2.8 0  2.4 2.8 0  2.6 2.8 0  2.8 2.8 0  3 2.8 0  3.2 2.8 0  3.4 2.8 0  3.6 2.8 0  3.8 2.8 0  4 2.8 0  4.2 2.8 0  4.4 2.8 0  4.6 2.8 0  4.8 2.8 0  5 2.8 0  5.2 2.8 0  5.4 2.8 0  5.6 2.8 0  5.8 2.8 0  6 2.8 0  6.2 2.8 0  6.4 2.8 0  6.6 2.8 0  6.8 2.8 0  7 2.8 0  7.2 2.8 0  7.4 2.8 0  7.6 2.8 0  7.8 2.8 0  8 2.8 0  8.199999999999999 2.8 0  8.4 2.8 0  8.6 2.8 0  8.800000000000001 2.8 0  9 2.8 0  9.199999999999999 2.8 0  9.4 2.8 0  9.6 2.8 0  9.800000000000001 2.8 0  10 2.8 0  0 3 0  0.2 3 0  0.4 3 0  0.6 3 0  0.8 3 0  1 3 0  1.2 3 0  1.4 3 0  1.6 3 0  1.8 3 0  2 3 0  2.2 3 0  2.4 3 0  2.6 3 0  2.8 3 0  3 3 0  3.2 3 0  3.4 3 0  3.6 3 0  3.8 3 0  4 3 0  4.2 3 0  4.4 3 0  4.6 3 0  4.8 3 0  5 3 0  5.2 3 0  5.4 3 0  5.6 3 0  5.8 3 0  6 3 0  6.2 3 0  6.4 3 0  6.6 3 0  6.8 3 0  7 3 0  7.2 3 0  7.4 3 0  7.6 3 0  7.8 3 0  8 3 0  8.199999999999999 3 0  8.4 3 0  8.6 3 0  8.800000000000001 3 0  9 3 0  9.199999999999999 3 0  9.4 3 0  9.6 3 0  9.800000000000001 3 0  10 3 0  0 3.2 0  0.2 3.2 0  0.4 3.2 0  0.6 3.2 0  0.8 3.2 0  1 3.2 0  1.2 3.2 0  1.4 3.2 0  1.6 3.2 0  1.8 3.2 0  2 3.2 0  2.2 3.2 0  2.4 3.2 0  2.6 3.2 0  2.8 3.2 0  3 3.2 0  3.2 3.2 0  3.4 3.2 0  3.6 3.2 0  3.8 3.2 0  4 3.2 0  4.2 3.2 0  4.4 3.2 0  4.6 3.2 0  4.8 3.2 0  5 3.2 0  5.2 3.2 0  5.4 3.2 0  5.6 3.2 0  5.8 3.2 0  6 3.2 0  6.2 3.2 0  6.4 3.2 0  6.6 3.2 0  6.8 3.2 0  7 3.2 0  7.2 3.2 0  7.4 3.2 0  7.6 3.2 0  7.8 3.2 0  8 3.2 0  8.199999999999999 3.2 0  8.4 3.2 0  8.6 3.2 0  8.800000000000001 3.2 0  9 3.2 0  9.199999999999999 3.2 0  9.4 3.2 0  9.6 3.2 0  9.800000000000001 3.2 0  10 3.2 0  0 3.4 0  0.2 3.4 0  0.4 3.4 0  0.6 3.4 0  0.8 3.4 0  1 
[...]
<PointData  Scalars="f_5"> 
<DataArray  type="Float64"  Name="f_5"  format="ascii">3.1423930966448771e-02  2.4840428706791332e-01  3.6617941939425491e-01  4.4385378981007650e-01  4.9937153802043832e-01  5.4034006444692140e-01  5.7124574646903448e-01  5.9484443012249666e-01  6.1294786211465835e-01  6.2679080573279899e-01  6.3724523323122950e-01  6.4495131030353448e-01  6.5040101412784779e-01  6.5399279131816401e-01  6.5606729387296792e-01  6.5693008695231547e-01  6.5686500720762353e-01  6.5614062662004624e-01  6.5501159788938612e-01  6.5371628916889468e-01  6.5247192337653404e-01  6.5146833290643413e-01  6.5086136198706401e-01  6.5076685145363566e-01  6.5125599618295349e-01  6.5235266349882348e-01  6.5403300912133999e-01  6.5622744890108775e-01  6.5882477243456350e-01  6.6167795247077366e-01  6.6461103735952431e-01  6.6742642319427548e-01  6.6991178076334534e-01  6.7184593771852297e-01  6.7300305653586190e-01  6.7315446817291269e-01  6.7206748405305428e-01  6.6950037876341406e-01  6.6519246944680654e-01  6.5884775098574067e-01  6.5010976511557317e-01  6.3852406796540095e-01  6.2348237613274859e-01  6.0413828027308347e-01  5.7927601908297854e-01  5.4709636024740793e-01  5.0484973756063622e-01  4.4805020056759248e-01  3.6908477338664769e-01  2.4999432799526142e-01  3.1713019308625211e-02  1.4492831304435554e-02  1.5001045462072218e-01  2.4473775825223845e-01  3.1621473079030366e-01  3.6773530219653228e-01  4.0648852834195626e-01  4.3585280131270210e-01  4.5832488633514856e-01  4.7555413781197348e-01  4.8868888072396632e-01  4.9855128878328747e-01  5.0575038152815910e-01  5.1075756309841736e-01  5.1395709268693857e-01  5.1567966968899936e-01  5.1622405124985205e-01  5.1586983527804497e-01  5.1488355281391163e-01  5.1351967159323442e-01  5.1201783465833461e-01  5.1059752766184141e-01  5.0945130593121979e-01  5.0873765915684954e-01  5.0857450572417351e-01  5.0903416390342704e-01  5.1014043436846779e-01  5.1186815752054859e-01  5.1414530651367463e-01  5.1685738037403606e-01  5.1985361005661201e-01  5.2295431299086870e-01  5.2595864021662553e-01  5.2865194589257891e-01  5.3081204633446610e-01  5.3221369023230902e-01  5.3263059747595554e-01  5.3183440843627672e-01  5.2958978794715028e-01  5.2564471266443524e-01  5.1971458246164348e-01  5.1145814260819678e-01  5.0044211700001129e-01  4.8608959419601094e-01  4.6760389440353639e-01  4.4385541606250978e-01  4.1320690964876772e-01  3.7316742555006560e-01  3.2035858057780436e-01  2.4758630636560919e-01  1.5154102565986841e-01  1.4689851855177670e-02  6.9464870435078929e-03  9.5011932190019299e-02  1.6543081820656963e-01  2.2220569444514116e-01  2.6598372346639659e-01  2.9963358557378561e-01  3.2550532998971532e-01  3.4537837458378773e-01  3.6056054402697069e-01  3.7200853715424903e-01  3.8043165472412327e-01  3.8637034632236139e-01  3.9025320305013783e-01  3.9243750344739309e-01  3.9323726320208413e-01  3.9294165666583281e-01  3.9182587452700951e-01  3.9015595173829154e-01  3.8818880012837753e-01  3.8616854856283289e-01  3.8432026947720838e-01  3.8284219700457039e-01  3.8189756468259239e-01  3.8160716148687107e-01  3.8204358733578914e-01  3.8322796699494216e-01  3.8512956467482501e-01  3.8766836767483842e-01  3.9072033233139214e-01  3.9412466937732304e-01  3.9769233515261110e-01  4.0121480947018934e-01  4.0447226861526375e-01  4.0724036582096595e-01  4.0929496178049368e-01  4.1041425538067744e-01  4.1037781094969905e-01  4.0896193587824126e-01  4.0593071164225830e-01  4.0102170082112476e-01  3.9392491144699265e-01  3.8425295438597407e-01  3.7149944492305936e-01  3.5498157045076179e-01  3.3376157246177296e-01  3.0654337999923903e-01  2.7155269066687576e-01  2.2643844481323069e-01  1.6832770299985333e-01  9.6552386194223100e-02  7.1497055756701185e-03  4.4473177574453401e-03  6.1598397321234226e-02  1.1080938448781195e-01  1.5341762335191231e-01  1.8776971425833763e-01  2.1500117165884902e-01  2.3623232010802264e-01  2.5257204822865897e-01  2.6492976854288985e-01  2.7402474110634256e-01  2.8042115611159146e-01  2.8456863135593796e-01  2.8683819814397432e-01  2.8755089875880491e-01  2.8699893049455943e-01  2.8546000303529823e-01  2.8320569874192347e-01  2.8050459149737217e-01  2.7762086236484074e-01  2.7480920610294579e-01  2.7230695100079799e-01  2.7032448188917946e-01  2.6903520746336468e-01  2.6856638330450350e-01  2.6899203267088012e-01  2.7032896544892965e-01  2.7253649081514258e-01  2.7551990747784633e-01  2.7913732895132293e-01  2.8320896201771534e-01  2.8752768435181403e-01  2.9186969594059176e-01  2.9600412843547308e-01  2.9970072462914521e-01  3.0273496586779119e-01  3.0489025378185136e-01  3.0595689313147939e-01  3.0572765260023343e-01  3.0398960274801101e-01  3.0051176615288111e-01  2.9502790379400889e-01  2.8721358274184106e-01  2.7665670231250078e-01  2.6282134580628946e-01  2.4500763473680406e-01  2.2231733370128434e-01  1.9364538761916836e-01  1.5786895206210316e-01  1.1384597086627830e-01  6.3209993707791567e-02  4.6585115757133084e-03  2.4653165322873617e-03  3.9313295984035747e-02  7.2427139334056714e-02  1.0258030465273971e-01  1.2788377682548696e-01  1.4843340416528647e-01  1.6461125248525479e-01  1.7698505831011768e-01  1.8610902419686121e-01  1.9247121389542451e-01  1.9648527613480987e-01  1.9850243937186421e-01  1.9882962465659976e-01  1.9774714393693454e-01  1.9552328570040256e-01  1.9242472426511012e-01  1.8872239507616845e-01  1.8469280036110233e-01  1.8061492615019104e-01  1.7676319490243431e-01  1.7339719169523782e-01  1.7074926741528379e-01  1.6901147165991937e-01  1.6832350130183865e-01  1.6876336504842829e-01  1.7034219202299392e-01  1.7300405574790625e-01  1.7663093179512790e-01  1.8105211451397416e-01  1.8605676412385114e-01  1.9140788071502479e-01  1.9685596301228164e-01  2.0215086719780914e-01  2.0705082193223881e-01  2.1132804045483405e-01  2.1477077939000705e-01  2.1718195575341676e-01  2.1837453388975167e-01  2.1816386503282639e-01  2.1635707070201576e-01  2.1273950659161264e-01  2.0705848153779133e-01  1.9900501406682575e-01  1.8819601510807296e-01  1.7416314289822221e-01  1.5636224536448218e-01  1.3422723437033612e-01  1.0737071644914128e-01  7.5686706917671473e-02  4.1041578428638356e-02  2.6882575230564678e-03  1.1207708220229982e-03  2.3581902093145930e-02  4.4548419573131361e-02  6.4577186364675118e-02  8.1908965160268882e-02  9.6213401089425860e-02  1.0744733374376558e-01  1.1581220032910926e-01  1.2158782006331850e-01  1.2506609617009914e-01  1.2652369264944946e-01  1.2621750328807205e-01  1.2439076682881266e-01  1.2128281691443912e-01  1.1713870562966076e-01  1.1221661783847441e-01  1.0679184950082005e-01  1.0115658631952069e-01  9.5615067984495469e-02  9.0474123074043289e-02  8.6029584361597744e-02  8.2549731638420165e-02  8.0257562334740101e-02  7.9314194698389004e-02  7.9805876725194208e-02  8.1736766098623251e-02  8.5028841074086522e-02  8.9529136825760219e-02  9.5023248163986662e-02  1.0125301696571989e-01  1.0793578209519059e-01  1.1478260441424225e-01  1.2151340445779787e-01  1.2786775324340904e-01  1.3361089009514437e-01  1.3853520867329402e-01  1.4245785517205853e-01  1.4521522333687650e-01  1.4665508661955334e-01  1.4662699857561332e-01  1.4497156509346906e-01  1.4150942974996991e-01  1.3603157687716352e-01  1.2829423950047411e-01  1.1802501603716137e-01  1.0495202380400956e-01  8.8871998215898251e-02  6.9818455593546588e-02  4.8106048003283809e-02  2.5467115309101146e-02  1.3596709080122640e-03  1.1415984875178514e-04  1.2098175494539218e-02  2.3879833587029314e-02  3.5848129842780158e-02  4.6484614321836974e-02  5.5282634864521243e-02  6.1977726078294597e-02  6.6540531465425642e-02  6.9055390979477674e-02  6.9660603369825103e-02  6.8517259609010422e-02  6.5797862967925141e-02  6.1686237608360318e-02  5.6382818525356815e-02  5.0111544190593986e-02  4.3125821550515496e-02  3.5711717951338998e-02  2.8186932248736120e-02  2.0894453824001936e-02  1.4190321998941408e-02  8.4256585277946924e-03  3.9241608708708966e-03  9.5737378398434670e-04  -2.7897254991171767e-04  3.1619789291078952e-04  2.7387210353762570e-03  6.8790895888399366e-03  1.2533193353083366e-02  1.9422208132079528e-02  2.7218279459267337e-02  3.5571840996362340e-02  4.4136605914925409e-02  5.2589286810563504e-02  6.0642526404348696e-02  6.8050911714841761e-02  7.4610976178943661e-02  8.0156639635102542e-02  8.4551643777702828e-02  8.7680367962778727e-02  8.9438153247487565e-02  8.9722114479481335e-02  8.8423565274883556e-02  8.5423810628829630e-02  8.0596382607842049e-02  7.3821063905907980e-02  6.5017785988451912e-02  5.4208854687553307e-02  4.1642935317979954e-02  2.7803420096927472e-02  1.4176061885282632e-02  3.7242151143587965e-04  -6.5436285664890721e-04  3.5416852831863092e-03  8.3377933771092670e-03  1.3958040448450067e-02  1.9108863182281260e-02  2.3217437219739324e-02  2.5907738490694124e-02  2.7009083442547235e-02  2.6471135095425792e-02  2.4316040584656303e-02  2.0610463859151110e-02  1.5453364056938045e-02  8.9741195721472107e-03  1.3365430500349397e-03  -7.2545519184335295e-03  -1.6546889895940015e-02  -2.6236707708822332e-02  -3.5969338022468489e-02  -4.5346357863956278e-02  -5.3940733770996757e-02  -6.1320383388579189e-02  -6.7079030432754455e-02  -7.0871339444628187e-02  -7.2447524380730280e-02  -7.1681559768534825e-02  -6.8587375956413468e-02  -6.3319242559998851e-02  -5.6155622529005231e-02  -4.7469252579676921e-02  -3.7688982932621622e-02  -2.7260140674589955e-02  -1.6609621282551910e-02  -6.1199717995503826e-03  3.8857888138506152e-03  1.3149150846385483e-02  2.1472965816658779e-02  2.8712880522385440e-02  3.4765985093548488e-02  3.9558818673088532e-02  4.3036298435082131e-02  4.5152723319848161e-02  4.5865928102225229e-02  4.5136040056613251e-02  4.2931173288751304e-02  3.9243772008740449e-02  3.4122499903589766e-02  2.7723456613884378e-02  2.0398476895091795e-02  1.2687353270612661e-02  5.8435330632676885e-03  -3.7382298836136215e-04  -1.2534644838146554e-03  -2.9035937510482673e-03  -3.4331555307521963e-03  -2.7813436382578484e-03  -2.0571365430649812e-03  -1.8554301446237695e-03  -2.6084881238508141e-03  -4.5747799512965851e-03  -7.8982758102543234e-03  -1.2645317149971977e-02  -1.8827192687926004e-02  -2.6410161571129995e-02  -3.5316214199364093e-02  -4.5417759365037079e-02  -5.6529029410203567e-02  -6.8396855746880966e-02  -8.0693602852158472e-02  -9.3015312419388610e-02  -1.0488822514882509e-01  -1.1578646104606416e-01  -1.2516240487057409e-01  -1.3248908142695490e-01  -1.3731069944788346e-01  -1.3929428419818632e-01  -1.3827304467032833e-01  -1.3427203808889604e-01  -1.2750946155253950e-01  -1.1837208804231278e-01  -1.0736939983895512e-01  -9.5075758689334211e-02  -8.2071861873927038e-02  -6.8895377499662985e-02  -5.6006944278311807e-02  -4.3773269390827721e-02  -3.2465344963812148e-02  -2.2267637093098487e-02  -1.3293531902295670e-02  -5.6028994875039900e-03  7.8125073602711799e-04  5.8589197833364987e-03  9.6431522700532527e-03  1.2154676275286831e-02  1.3422008625568624e-02  1.3488447581813895e-02  1.2428213894492187e-02  1.0374465295111733e-02  7.5605663485953994e-03  4.3834998838849417e-03  1.3928576574647610e-03  -3.5173458488044744e-04  -9.4834427475111698e-04  -1.7280219981102795e-03  -7.7705665882907725e-03  -1.2348006897672559e-02  -1.5557478166042176e-02  -1.8362365766410101e-02  -2.1363430081948347e-02  -2.5022792814812633e-02  -2.9656691076525084e-02  -3.5477602393027843e-02  -4.2622645832255855e-02  -5.1170844492640977e-02  -6.1149772422999620e-02  -7.2533509584502026e-02  -8.5234070754962893e-02  -9.9088535853975090e-02  -1.1384444983750341e-01  -1.2914674982477811e-01  -1.4453037697677856e-01  -1.5942349145392315e-01  -1.7316627745788132e-01  -1.8504903902856698e-01  -1.9437012451555866e-01  -2.0050920588134372e-01  -2.0300556148455198e-01  -2.0162628450960510e-01  -1.9640822293597252e-01  -1.8766159540202515e-01  -1.7593214970450580e-01  -1.6192951720085058e-01  -1.4643790972927001e-01  -1.3022829068282787e-01  -1.1398803513460658e-01  -9.8276942951815341e-02  -8.3510559158993997e-02  -6.9965798570527815e-02  -5.7801029445112777e-02  -4.7082734102409714e-02  -3.7812543788900539e-02  -2.9950685051484533e-02  -2.3433860178184093e-02  -1.8186922026162126e-02  -1.4128320029359513e-02  -1.1169291260897744e-02  -9.2063306674383411e-03  -8.1058399183303546e-03  -7.6795852178324830e-03  -7.6507121214141310e-03  -7.6066774425269943e-03  -7.0070846190911336e-03  -4.9491465522245193e-03  -1.3967532336366447e-03  -2.1088465808841994e-03  -1.1420931071146102e-02  -1.9041630808680945e-02  -2.5217476768024646e-02  -3.0798195815332729e-02  -3.6385146934551610e-02  -4.2458398450371498e-02  -4.9376049347416150e-02  -5.7405164544618116e-02  -6.6744205295508396e-02  -7.7535929898862585e-02  -8.9870549267325836e-02  -1.0378006689546285e-01  -1.1922503896559287e-01  -1.3607531220022340e-01  -1.5408704941023554e-01  -1.7287968800695955e-01  -1.9191830406978866e-01  -2.1050876058946733e-01  -2.2781417033828663e-01  -2.4290038071757497e-01  -2.5481412140247839e-01  -2.6268958922879376e-01  -2.6586873526697685e-01  -2.6401082363223943e-01  -2.5716294288134667e-01  -2.4576908201171047e-01  -2.3061102864515867e-01  -2.1269419998188224e-01  -1.9310706184608847e-01  -1.7288744590496291e-01  -1.5292202132722771e-01  -1.3389119347966438e-01  -1.1625758122896064e-01  -1.0028688676371519e-01  -8.6086804887291118e-02  -7.3651219248201602e-02  -6.2900854005627824e-02  -5.3715698368004411e-02  -4.5957719149265809e-02  -3.9484273987160416e-02  -3.4153381394613901e-02  -2.9821926386869004e-02  -2.6337328652394586e-02  -2.3522503919048459e-02  -2.1153588265303776e-02  -1.8930698036726038e-02  -1.6441316490035936e-02  -1.3162506719085460e-02  -8.3185089639305591e-03  -1.7507400142372982e-03  -2.4178740945994971e-03  -1.4107189203701489e-02  -2.3964103909354557e-02  -3.2373367915780327e-02  -4.0095678121257236e-02  -4.7731399384869221e-02  -5.5773395342535961e-02  -6.4613649185752769e-02  -7.4567125272037182e-02  -8.5890336846543319e-02  -9.8791160251156696e-02  -1.1342905664554236e-01  -1.2990572122810370e-01  -1.4824635704434488e-01  -1.6837215959333951e-01  -1.9006564730952744e-01  -2.1293250661032287e-01  -2.3636672073429951e-01  -2.5952955711560405e-01  -2.8135637846112427e-01  -3.0060613599183356e-01  -3.1596405308920794e-01  -3.2619625201260938e-01  -3.3033656430209374e-01  -3.2786604527772939e-01  -3.1883482283979747e-01  -3.0388355333957218e-01  -2.8414969160514936e-01  -2.6108150726832108e-01  -2.3621220804783261e-01  -2.1095364604747316e-01  -1.8645307664377223e-01  -1.6352864437647766e-01  -1.4267402298141052e-01  -1.2410865931132770e-01  -1.0784808228594349e-01  -9.3774425136612771e-02  -8.1695496556613761e-02  -7.1387894169127622e-02  -6.2624358136610311e-02  -5.5187846540769768e-02  -4.8875340488810440e-02  -4.3493890879503297e-02  -3.8850473829521316e-02  -3.4736245688051427e-02  -3.0905185620383867e-02  -2.7047631089617625e-02  -2.2760253781505192e-02  -1.7542215209991448e-02  -1.0722249423232950e-02  -2.0332749678835934e-03  -2.6710260209753386e-03  -1.6009597590365576e-02  -2.7440420860544896e-02  -3.7472743983686892e-02  -4.6796610788141069e-02  -5.6010355019942136e-02  -6.5617195759321234e-02  -7.6039059489545896e-02  -8.7636315678733381e-02  -1.0072428829696044e-01  -1.1558146957545881e-01  -1.3244795244219057e-01  -1.5151310991794367e-01  -1.7289139803430839e-01  -1.9658535017507472e-01  -2.2243592131469173e-01  -2.5006296214743040e-01  -2.7880325302284181e-01  -3.0766021664405413e-01  -3.3528698782234029e-01  -3.6002979437671390e-01  -3.8005623496207425e-01  -3.9357706473451137e-01  -3.9913838981016558e-01  -3.9592142220228244e-01  -3.8395889890647650e-01  -3.6418429466315944e-01  -3.3828061229283812e-01  -3.0836978662023240e-01  -2.7664158581600345e-01  -2.4503114656298833e-01  -2.1501745540817169e-01  -1.8755886927860468e-01  -1.6313690072309719e-01  -1.4186054718339033e-01  -1.2358712744064757e-01  -1.0803043715090548e-01  -9.4842800105507677e-02  -8.3669006243168489e-02  -7.4176230116078073e-02  -6.6066031263678757e-02  -5.9074144524973435e-02  -5.2962322758743970e-02  -4.7504824804064420e-02  -4.2470705646318017e-02  -3.7602153681641728e-02  -3.2589411910313421e-02  -2.7044860391585282e-02  -2.0493624641055433e-02  -1.2352408766028561e-02  -2.2614642438956644e-03  -2.8799535512079736e-03  -1.7259573723245783e-02  -2.9709700410874732e-02  -4.0847638365812212e-02  -5.1305995924287764e-02  -6.1679235052680768e-02  -7.2479016206119296e-02  -8.4154797152148492e-02  -9.7111701263197486e-02  -1.1172664882380763e-01  -1.2835671926843278e-01  -1.4733760230957141e-01  -1.6897005221951999e-01  -1.9349153086466092e-01  -2.2102981807980271e-01  -2.5153598228729829e-01  -2.8469681788095136e-01  -3.1983294526129247e-01  -3.5579927505037312e-01  -3.9091906408602795e-01  -4.2299749273309589e-01  -4.4946631311563595e-01  -4.6769373815189413e-01  -4.7544222948288861e-01  -4.7137788469112746e-01  -4.5546571965623789e-01  -4.2908134994080860e-01  -3.9476236744853582e-01  -3.5567468691612164e-01  -3.1498773229414312e-01  -2.7536474337095845e-01  -2.3868791285740731e-01  -2.0602238961799549e-01  -1.7774513781414863e-01  -1.5374501159428050e-01  -1.3362139905607959e-01  -1.1684254508201473e-01  -1.0285267575163409e-01  -9.1133344029020444e-02  -8.1230646177241753e-02  -7.2760092715220645e-02  -6.5398381379993070e-02  -5.8868200930217572e-02  -5.2919462767480253e-02  -4.7308354461323150e-02  -4.1774407019353067e-02  -3.6015921635105752e-02  -2.9666623630888764e-02  -2.2281680081811042e-02  -1.3353873708756698e-02  -2.4482695842758290e-03  -3.0531611845532108e-03  -1.7955339000894598e-02  -3.0952111251176823e-02  -4.2749499692771212e-02  -5.3931590174851413e-02  -6.5085715808506112e-02  -7.6729326742011342e-02  -8.9336793154911942e-02  -1.0335723722522658e-01  -1.1923193462258318e-01  -1.3740488748356941e-01  -1.5832386437645468e-01  -1.8242868523027972e-01  -2.1012194436457071e-01  -2.4171581021072622e-01  -2.7734778971639357e-01  -3.1685996419251922e-01  -3.5964263540139768e-01  -4.0445768898364104e-01  -4.4928156475699876e-01  -4.9124012109166171e-01  -5.2673472453524672e-01  -5.5185235996594351e-01  -5.6307747955599186e-01  -5.5817078355539040e-01  -5.3691225503738516e-01  -5.0135546959183397e-01  -4.5541019485885881e-01  -4.0389492146081746e-01  -3.5145600616540973e-01  -3.0175603655595790e-01  -2.5712454098858878e-01  -2.1862287044189585e-01  -1.8634639714997112e-01  -1.5978691954438434e-01  -1.3814380973399348e-01  -1.2054185480661014e-01  -1.0615859337341159e-01  -9.4283012381291720e-02  -8.4330012211238634e-02  -7.5830241991225442e-02  -6.8408444535763960e-02  -6.1757879358244644e-02  -5.5614397810790347e-02  -4.9731232772878921e-02  -4.3854220082325292e-02  -3.7697326981678811e-02  -3.0921039979162436e-02  -2.3114992144482017e-02  -1.3839584618916918e-02  -2.6035853459707415e-03  -3.1967718503231744e-03  -1.8172879264950342e-02  -3.1308146918531718e-02  -4.3375092911659321e-02  -5.4914533759692928e-02  -6.6501731148786478e-02  -7.8655752455885783e-02  -9.1871763529529360e-02  -1.0664031123174746e-01  -1.2346759980650635e-01  -1.4289058840981275e-01  -1.6548393090935354e-01  -1.9185463602321531e-01  -2.2261766424249160e-01  -2.5834237129360538e-01  -2.9945634542005783e-01  -3.4609156616238101e-01  -3.9786163700564325e-01  -4.5357448100144421e-01  -5.1092059878082186e-01  -5.6623771966004055e-01  -6.1452682312146656e-01  -6.4993434676909390e-01  -6.6683260380976317e-01  -6.6135178448517584e-01  -6.3281828925077976e-01  -5.8434243970600386e-01  -5.2210218995296720e-01  -4.5359543037533190e-01  -3.8571369303771041e-01  -3.2345027042428320e-01  -2.6953087190170893e-01  -2.2474915688453848e-01  -1.8860416773420538e-01  -1.5992237157496242e-01  -1.3731547903601277e-01  -1.1945350127254137e-01  -1.0519284605545590e-01  -9.3611711121200494e-02  -8.3995651756015227e-02  -7.5801697529620959e-02  -6.8617040954112113e-02  -6.2119876762232684e-02  -5.6044924777500497e-02  -5.0153510321960949e-02  -4.4206914629289371e-02  -3.7942089319561098e-02  -3.10515012717