<?xml version="1.0"?>
<VTKFile type="UnstructuredGrid"  version="0.1"  >
<UnstructuredGrid>
<Piece  NumberOfPoints="5101" NumberOfCells="10000">
<Points>
<DataArray  type="Float64"  NumberOfComponents="3"  format="ascii">0 0 0  0.2 0 0  0.4 0 0  0.6 0 0  0.8 0 0  1 0 0  1.2 0 0  1.4 0 0  1.6 0 0  1.8 0 0  2 0 0  2.2 0 0  2.4 0 0  2.6 0 0  2.8 0 0  3 0 0  3.2 0 0  3.4 0 0  3.6 0 0  3.8 0 0  4 0 0  4.2 0 0  4.4 0 0  4.6 0 0  4.8 0 0  5 0 0  5.2 0 0  5.4 0 0  5.6 0 0  5.8 0 0  6 0 0  6.2 0 0  6.4 0 0  6.6 0 0  6.8 0 0  7 0 0  7.2 0 0  7.4 0 0  7.6 0 0  7.8 0 0  8 0 0  8.199999999999999 0 0  8.4 0 0  8.6 0 0  8.800000000000001 0 0  9 0 0  9.199999999999999 0 0  9.4 0 0  9.6 0 0  9.800000000000001 0 0  10 0 0  0 0.2 0  0.2 0.2 0  0.4 0.2 0  0.6 0.2 0  0.8 0.2 0  1 0.2 0  1.2 0.2 0  1.4 0.2 0  1.6 0.2 0  1.8 0.2 0  2 0.2 0  2.2 0.2 0  2.4 0.2 0  2.6 0.2 0  2.8 0.2 0  3 0.2 0  3.2 0.2 0  3.4 0.2 0  3.6 0.2 0  3.8 0.2 0  4 0.2 0  4.2 0.2 0  4.4 0.2 0  4.6 0.2 0  4.8 0.2 0  5 0.2 0  5.2 0.2 0  5.4 0.2 0  5.6 0.2 0  5.8 0.2 0  6 0.2 0  6.2 0.2 0  6.4 0.2 0  6.6 0.2 0  6.8 0.2 0  7 0.2 0  7.2 0.2 0  7.4 0.2 0  7.6 0.2 0  7.8 0.2 0  8 0.2 0  8.199999999999999 0.2 0  8.4 0.2 0  8.6 0.2 0  8.800000000000001 0.2 0  9 0.2 0  9.199999999999999 0.2 0  9.4 0.2 0  9.6 0.2 0  9.800000000000001 0.2 0  10 0.2 0  0 0.4 0  0.2 0.4 0  0.4 0.4 0  0.6 0.4 0  0.8 0.4 0  1 0.4 0  1.2 0.4 0  1.4 0.4 0  1.6 0.4 0  1.8 0.4 0  2 0.4 0  2.2 0.4 0  2.4 0.4 0  2.6 0.4 0  2.8 0.4 0  3 0.4 0  3.2 0.4 0  3.4 0.4 0  3.6 0.4 0  3.8 0.4 0  4 0.4 0  4.2 0.4 0  4.4 0.4 0  4.6 0.4 0  4.8 0.4 0  5 0.4 0  5.2 0.4 0  5.4 0.4 0  5.6 0.4 0  5.8 0.4 0  6 0.4 0  6.2 0.4 0  6.4 0.4 0  6.6 0.4 0  6.8 0.4 0  7 0.4 0  7.2 0.4 0  7.4 0.4 0  7.6 0.4 0  7.8 0.4 0  8 0.4 0  8.199999999999999 0.4 0  8.4 0.4 0  8.6 0.4 0  8.800000000000001 0.4 0  9 0.4 0  9.199999999999999 0.4 0  9.4 0.4 0  9.6 0.4 0  9.800000000000001 0.4 0  10 0.4 0  0 0.6 0  0.2 0.6 0  0.4 0.6 0  0.6 0.6 0  0.8 0.6 0  1 0.6 0  1.2 0.6 0  1.4 0.6 0  1.6 0.6 0  1.8 0.6 0  2 0.6 0  2.2 0.6 0  2.4 0.6 0  2.6 0.6 0  2.8 0.6 0  3 0.6 0  3.2 0.6 0  3.4 0.6 0  3.6 0.6 0  3.8 0.6 0  4 0.6 0  4.2 0.6 0  4.4 0.6 0  4.6 0.6 0  4.8 0.6 0  5 0.6 0  5.2 0.6 0  5.4 0.6 0  5.6 0.6 0  5.8 0.6 0  6 0.6 0  6.2 0.6 0  6.4 0.6 0  6.6 0.6 0  6.8 0.6 0  7 0.6 0  7.2 0.6 0  7.4 0.6 0  7.6 0.6 0  7.8 0.6 0  8 0.6 0  8.199999999999999 0.6 0  8.4 0.6 0  8.6 0.6 0  8.800000000000001 0.6 0  9 0.6 0  9.199999999999999 0.6 0  9.4 0.6 0  9.6 0.6 0  9.800000000000001 0.6 0  10 0.6 0  0 0.8 0  0.2 0.8 0  0.4 0.8 0  0.6 0.8 0  0.8 0.8 0  1 0.8 0  1.2 0.8 0  1.4 0.8 0  1.6 0.8 0  1.8 0.8 0  2 0.8 0  2.2 0.8 0  2.4 0.8 0  2.6 0.8 0  2.8 0.8 0  3 0.8 0  3.2 0.8 0  3.4 0.8 0  3.6 0.8 0  3.8 0.8 0  4 0.8 0  4.2 0.8 0  4.4 0.8 0  4.6 0.8 0  4.8 0.8 0  5 0.8 0  5.2 0.8 0  5.4 0.8 0  5.6 0.8 0  5.8 0.8 0  6 0.8 0  6.2 0.8 0  6.4 0.8 0  6.6 0.8 0  6.8 0.8 0  7 0.8 0  7.2 0.8 0  7.4 0.8 0  7.6 0.8 0  7.8 0.8 0  8 0.8 0  8.199999999999999 0.8 0  8.4 0.8 0  8.6 0.8 0  8.800000000000001 0.8 0  9 0.8 0  9.199999999999999 0.8 0  9.4 0.8 0  9.6 0.8 0  9.800000000000001 0.8 0  10 0.8 0  0 1 0  0.2 1 0  0.4 1 0  0.6 1 0  0.8 1 0  1 1 0  1.2 1 0  1.4 1 0  1.6 1 0  1.8 1 0  2 1 0  2.2 1 0  2.4 1 0  2.6 1 0  2.8 1 0  3 1 0  3.2 1 0  3.4 1 0  3.6 1 0  3.8 1 0  4 1 0  4.2 1 0  4.4 1 0  4.6 1 0  4.8 1 0  5 1 0  5.2 1 0  5.4 1 0  5.6 1 0  5.8 1 0  6 1 0  6.2 1 0  6.4 1 0  6.6 1 0  6.8 1 0  7 1 0  7.2 1 0  7.4 1 0  7.6 1 0  7.8 1 0  8 1 0  8.199999999999999 1 0  8.4 1 0  8.6 1 0  8.800000000000001 1 0  9 1 0  9.199999999999999 1 0  9.4 1 0  9.6 1 0  9.800000000000001 1 0  10 1 0  0 1.2 0  0.2 1.2 0  0.4 1.2 0  0.6 1.2 0  0.8 1.2 0  1 1.2 0  1.2 1.2 0  1.4 1.2 0  1.6 1.2 0  1.8 1.2 0  2 1.2 0  2.2 1.2 0  2.4 1.2 0  2.6 1.2 0  2.8 1.2 0  3 1.2 0  3.2 1.2 0  3.4 1.2 0  3.6 1.2 0  3.8 1.2 0  4 1.2 0  4.2 1.2 0  4.4 1.2 0  4.6 1.2 0  4.8 1.2 0  5 1.2 0  5.2 1.2 0  5.4 1.2 0  5.6 1.2 0  5.8 1.2 0  6 1.2 0  6.2 1.2 0  6.4 1.2 0  6.6 1.2 0  6.8 1.2 0  7 1.2 0  7.2 1.2 0  7.4 1.2 0  7.6 1.2 0  7.8 1.2 0  8 1.2 0  8.199999999999999 1.2 0  8.4 1.2 0  8.6 1.2 0  8.800000000000001 1.2 0  9 1.2 0  9.199999999999999 1.2 0  9.4 1.2 0  9.6 1.2 0  9.800000000000001 1.2 0  10 1.2 0  0 1.4 0  0.2 1.4 0  0.4 1.4 0  0.6 1.4 0  0.8 1.4 0  1 1.4 0  1.2 1.4 0  1.4 1.4 0  1.6 1.4 0  1.8 1.4 0  2 1.4 0  2.2 1.4 0  2.4 1.4 0  2.6 1.4 0  2.8 1.4 0  3 1.4 0  3.2 1.4 0  3.4 1.4 0  3.6 1.4 0  3.8 1.4 0  4 1.4 0  4.2 1.4 0  4.4 1.4 0  4.6 1.4 0  4.8 1.4 0  5 1.4 0  5.2 1.4 0  5.4 1.4 0  5.6 1.4 0  5.8 1.4 0  6 1.4 0  6.2 1.4 0  6.4 1.4 0  6.6 1.4 0  6.8 1.4 0  7 1.4 0  7.2 1.4 0  7.4 1.4 0  7.6 1.4 0  7.8 1.4 0  8 1.4 0  8.199999999999999 1.4 0  8.4 1.4 0  8.6 1.4 0  8.800000000000001 1.4 0  9 1.4 0  9.199999999999999 1.4 0  9.4 1.4 0  9.6 1.4 0  9.800000000000001 1.4 0  10 1.4 0  0 1.6 0  0.2 1.6 0  0.4 1.6 0  0.6 1.6 0  0.8 1.6 0  1 1.6 0  1.2 1.6 0  1.4 1.6 0  1.6 1.6 0  1.8 1.6 0  2 1.6 0  2.2 1.6 0  2.4 1.6 0  2.6 1.6 0  2.8 1.6 0  3 1.6 0  3.2 1.6 0  3.4 1.6 0  3.6 1.6 0  3.8 1.6 0  4 1.6 0  4.2 1.6 0  4.4 1.6 0  4.6 1.6 0  4.8 1.6 0  5 1.6 0  5.2 1.6 0  5.4 1.6 0  5.6 1.6 0  5.8 1.6 0  6 1.6 0  6.2 1.6 0  6.4 1.6 0  6.6 1.6 0  6.8 1.6 0  7 1.6 0  7.2 1.6 0  7.4 1.6 0  7.6 1.6 0  7.8 1.6 0  8 1.6 0  8.199999999999999 1.6 0  8.4 1.6 0  8.6 1.6 0  8.800000000000001 1.6 0  9 1.6 0  9.199999999999999 1.6 0  9.4 1.6 0  9.6 1.6 0  9.800000000000001 1.6 0  10 1.6 0  0 1.8 0  0.2 1.8 0  0.4 1.8 0  0.6 1.8 0  0.8 1.8 0  1 1.8 0  1.2 1.8 0  1.4 1.8 0  1.6 1.8 0  1.8 1.8 0  2 1.8 0  2.2 1.8 0  2.4 1.8 0  2.6 1.8 0  2.8 1.8 0  3 1.8 0  3.2 1.8 0  3.4 1.8 0  3.6 1.8 0  3.8 1.8 0  4 1.8 0  4.2 1.8 0  4.4 1.8 0  4.6 1.8 0  4.8 1.8 0  5 1.8 0  5.2 1.8 0  5.4 1.8 0  5.6 1.8 0  5.8 1.8 0  6 1.8 0  6.2 1.8 0  6.4 1.8 0  6.6 1.8 0  6.8 1.8 0  7 1.8 0  7.2 1.8 0  7.4 1.8 0  7.6 1.8 0  7.8 1.8 0  8 1.8 0  8.199999999999999 1.8 0  8.4 1.8 0  8.6 1.8 0  8.800000000000001 1.8 0  9 1.8 0  9.199999999999999 1.8 0  9.4 1.8 0  9.6 1.8 0  9.800000000000001 1.8 0  10 1.8 0  0 2 0  0.2 2 0  0.4 2 0  0.6 2 0  0.8 2 0  1 2 0  1.2 2 0  1.4 2 0  1.6 2 0  1.8 2 0  2 2 0  2.2 2 0  2.4 2 0  2.6 2 0  2.8 2 0  3 2 0  3.2 2 0  3.4 2 0  3.6 2 0  3.8 2 0  4 2 0  4.2 2 0  4.4 2 0  4.6 2 0  4.8 2 0  5 2 0  5.2 2 0  5.4 2 0  5.6 2 0  5.8 2 0  6 2 0  6.2 2 0  6.4 2 0  6.6 2 0  6.8 2 0  7 2 0  7.2 2 0  7.4 2 0  7.6 2 0  7.8 2 0  8 2 0  8.199999999999999 2 0  8.4 2 0  8.6 2 0  8.800000000000001 2 0  9 2 0  9.199999999999999 2 0  9.4 2 0  9.6 2 0  9.800000000000001 2 0  10 2 0  0 2.2 0  0.2 2.2 0  0.4 2.2 0  0.6 2.2 0  0.8 2.2 0  1 2.2 0  1.2 2.2 0  1.4 2.2 0  1.6 2.2 0  1.8 2.2 0  2 2.2 0  2.2 2.2 0  2.4 2.2 0  2.6 2.2 0  2.8 2.2 0  3 2.2 0  3.2 2.2 0  3.4 2.2 0  3.6 2.2 0  3.8 2.2 0  4 2.2 0  4.2 2.2 0  4.4 2.2 0  4.6 2.2 0  4.8 2.2 0  5 2.2 0  5.2 2.2 0  5.4 2.2 0  5.6 2.2 0  5.8 2.2 0  6 2.2 0  6.2 2.2 0  6.4 2.2 0  6.6 2.2 0  6.8 2.2 0  7 2.2 0  7.2 2.2 0  7.4 2.2 0  7.6 2.2 0  7.8 2.2 0  8 2.2 0  8.199999999999999 2.2 0  8.4 2.2 0  8.6 2.2 0  8.800000000000001 2.2 0  9 2.2 0  9.199999999999999 2.2 0  9.4 2.2 0  9.6 2.2 0  9.800000000000001 2.2 0  10 2.2 0  0 2.4 0  0.2 2.4 0  0.4 2.4 0  0.6 2.4 0  0.8 2.4 0  1 2.4 0  1.2 2.4 0  1.4 2.4 0  1.6 2.4 0  1.8 2.4 0  2 2.4 0  2.2 2.4 0  2.4 2.4 0  2.6 2.4 0  2.8 2.4 0  3 2.4 0  3.2 2.4 0  3.4 2.4 0  3.6 2.4 0  3.8 2.4 0  4 2.4 0  4.2 2.4 0  4.4 2.4 0  4.6 2.4 0  4.8 2.4 0  5 2.4 0  5.2 2.4 0  5.4 2.4 0  5.6 2.4 0  5.8 2.4 0  6 2.4 0  6.2 2.4 0  6.4 2.4 0  6.6 2.4 0  6.8 2.4 0  7 2.4 0  7.2 2.4 0  7.4 2.4 0  7.6 2.4 0  7.8 2.4 0  8 2.4 0  8.199999999999999 2.4 0  8.4 2.4 0  8.6 2.4 0  8.800000000000001 2.4 0  9 2.4 0  9.199999999999999 2.4 0  9.4 2.4 0  9.6 2.4 0  9.800000000000001 2.4 0  10 2.4 0  0 2.6 0  0.2 2.6 0  0.4 2.6 0  0.6 2.6 0  0.8 2.6 0  1 2.6 0  1.2 2.6 0  1.4 2.6 0  1.6 2.6 0  1.8 2.6 0  2 2.6 0  2.2 2.6 0  2.4 2.6 0  2.6 2.6 0  2.8 2.6 0  3 2.6 0  3.2 2.6 0  3.4 2.6 0  3.6 2.6 0  3.8 2.6 0  4 2.6 0  4.2 2.6 0  4.4 2.6 0  4.6 2.6 0  4.8 2.6 0  5 2.6 0  5.2 2.6 0  5.4 2.6 0  5.6 2.6 0  5.8 2.6 0  6 2.6 0  6.2 2.6 0  6.4 2.6 0  6.6 2.6 0  6.8 2.6 0  7 2.6 0  7.2 2.6 0  7.4 2.6 0  7.6 2.6 0  7.8 2.6 0  8 2.6 0  8.199999999999999 2.6 0  8.4 2.6 0  8.6 2.6 0  8.800000000000001 2.6 0  9 2.6 0  9.199999999999999 2.6 0  9.4 2.6 0  9.6 2.6 0  9.800000000000001 2.6 0  10 2.6 0  0 2.8 0  0.2 2.8 0  0.4 2.8 0  0.6 2.8 0  0.8 2.8 0  1 2.8 0  1.2 2.8 0  1.4 2.8 0  1.6 2.8 0  1.8 2.8 0  2 2.8 0  2.2 2.8 0  2.4 2.8 0  2.6 2.8 0  2.8 2.8 0  3 2.8 0  3.2 2.8 0  3.4 2.8 0  3.6 2.8 0  3.8 2.8 0  4 2.8 0  4.2 2.8 0  4.4 2.8 0  4.6 2.8 0  4.8 2.8 0  5 2.8 0  5.2 2.8 0  5.4 2.8 0  5.6 2.8 0  5.8 2.8 0  6 2.8 0  6.2 2.8 0  6.4 2.8 0  6.6 2.8 0  6.8 2.8 0  7 2.8 0  7.2 2.8 0  7.4 2.8 0  7.6 2.8 0  7.8 2.8 0  8 2.8 0  8.199999999999999 2.8 0  8.4 2.8 0  8.6 2.8 0  8.800000000000001 2.8 0  9 2.8 0  9.199999999999999 2.8 0  9.4 2.8 0  9.6 2.8 0  9.800000000000001 2.8 0  10 2.8 0  0 3 0  0.2 3 0  0.4 3 0  0.6 3 0  0.8 3 0  1 3 0  1.2 3 0  1.4 3 0  1.6 3 0  1.8 3 0  2 3 0  2.2 3 0  2.4 3 0  2.6 3 0  2.8 3 0  3 3 0  3.2 3 0  3.4 3 0  3.6 3 0  3.8 3 0  4 3 0  4.2 3 0  4.4 3 0  4.6 3 0  4.8 3 0  5 3 0  5.2 3 0  5.4 3 0  5.6 3 0  5.8 3 0  6 3 0  6.2 3 0  6.4 3 0  6.6 3 0  6.8 3 0  7 3 0  7.2 3 0  7.4 3 0  7.6 3 0  7.8 3 0  8 3 0  8.199999999999999 3 0  8.4 3 0  8.6 3 0  8.800000000000001 3 0  9 3 0  9.199999999999999 3 0  9.4 3 0  9.6 3 0  9.800000000000001 3 0  10 3 0  0 3.2 0  0.2 3.2 0  0.4 3.2 0  0.6 3.2 0  0.8 3.2 0  1 3.2 0  1.2 3.2 0  1.4 3.2 0  1.6 3.2 0  1.8 3.2 0  2 3.2 0  2.2 3.2 0  2.4 3.2 0  2.6 3.2 0  2.8 3.2 0  3 3.2 0  3.2 3.2 0  3.4 3.2 0  3.6 3.2 0  3.8 3.2 0  4 3.2 0  4.2 3.2 0  4.4 3.2 0  4.6 3.2 0  4.8 3.2 0  5 3.2 0  5.2 3.2 0  5.4 3.2 0  5.6 3.2 0  5.8 3.2 0  6 3.2 0  6.2 3.2 0  6.4 3.2 0  6.6 3.2 0  6.8 3.2 0  7 3.2 0  7.2 3.2 0  7.4 3.2 0  7.6 3.2 0  7.8 3.2 0  8 3.2 0  8.199999999999999 3.2 0  8.4 3.2 0  8.6 3.2 0  8.800000000000001 3.2 0  9 3.2 0  9.199999999999999 3.2 0  9.4 3.2 0  9.6 3.2 0  9.800000000000001 3.2 0  10 3.2 0  0 3.4 0  0.2 3.4 0  0.4 3.4 0  0.6 3.4 0  0.8 3.4 0  1 
[...]
<PointData  Scalars="f_14"> 
<DataArray  type="Float64"  Name="f_14"  format="ascii">9.4738724910180783e-01  9.4372969993990186e-01  9.3433904244296806e-01  9.2127683009277017e-01  9.0609586757337712e-01  8.8990257386562033e-01  8.7347621940631504e-01  8.5736506606641472e-01  8.4195420455530856e-01  8.2751114161832051e-01  8.1421597793971379e-01  8.0218115666830270e-01  7.9146448915307244e-01  7.8207816047681122e-01  7.7399566921846985e-01  7.6715803816990802e-01  7.6148009187352006e-01  7.5685713132466936e-01  7.5317197193714214e-01  7.5030207475957567e-01  7.4812640064514302e-01  7.4653163396405209e-01  7.4541751714024818e-01  7.4470116271224518e-01  7.4432032429553185e-01  7.4423568449352784e-01  7.4443224583555012e-01  7.4491989399081626e-01  7.4573315466925416e-01  7.4693010630793766e-01  7.4859036140778856e-01  7.5081201050999002e-01  7.5370744956356295e-01  7.5739808948651111e-01  7.6200806723301329e-01  7.6765721429569678e-01  7.7445364899638636e-01  7.8248639306777656e-01  7.9181832684956555e-01  8.0247956744328675e-01  8.1446098518868426e-01  8.2770709329237946e-01  8.4210698345819945e-01  8.5748134159134970e-01  8.7356281419310211e-01  8.8996598578117514e-01  9.0614195715052104e-01  9.2131066278412521e-01  9.3436486636918847e-01  9.4375104434649537e-01  9.4740713905187701e-01  9.4373105102111687e-01  9.4217206120918795e-01  9.3594191522799941e-01  9.2572862719516635e-01  9.1289366178982456e-01  8.9859098988396668e-01  8.8368790996453317e-01  8.6881351386508454e-01  8.5441647194382142e-01  8.4081160854781978e-01  8.2821347931706335e-01  8.1675959982671897e-01  8.0652633888185543e-01  7.9754009295294559e-01  7.8978577748871837e-01  7.8321408570380113e-01  7.7774841966981534e-01  7.7329192139386704e-01  7.6973465619643067e-01  7.6696075322660362e-01  7.6485519438062144e-01  7.6330994440637112e-01  7.6222919367027930e-01  7.6153359599490233e-01  7.6116348748957352e-01  7.6108114203061183e-01  7.6127214430281254e-01  7.6174594507382964e-01  7.6253561829347427e-01  7.6369678386107953e-01  7.6530561361868599e-01  7.6745582017556546e-01  7.7025455253684061e-01  7.7381719391154091e-01  7.7826116645259491e-01  7.8369896945860773e-01  7.9023077124211805e-01  7.9793689264950662e-01  8.0687041981397145e-01  8.1704994185654478e-01  8.2845202927278483e-01  8.4100257736014872e-01  8.5456557328801419e-01  8.6892724029327795e-01  8.8377291713120332e-01  8.9865362795600623e-01  9.1293966405243521e-01  9.2576294556810557e-01  9.3596868416857659e-01  9.4219467273722923e-01  9.4375233775094869e-01  9.3434453210991086e-01  9.3594606107865130e-01  9.3576091371314940e-01  9.3166450942408052e-01  9.2415797094993801e-01  9.1428329384558593e-01  9.0301643147311861e-01  8.9113434105947353e-01  8.7921735498977061e-01  8.6768352844894747e-01  8.5682430907096785e-01  8.4683356414138067e-01  8.3782935198075048e-01  8.2986994063999953e-01  8.2296590864113228e-01  8.1708988329879162e-01  8.1218501472989335e-01  8.0817282296991655e-01  8.0496067287596462e-01  8.0244886485413525e-01  8.0053718697036236e-01  7.9913073913410848e-01  7.9814487954045921e-01  7.9750921824824128e-01  7.9717065781863172e-01  7.9709553253499277e-01  7.9727091526481986e-01  7.9770514567052331e-01  7.9842759491033632e-01  7.9948763484619378e-01  8.0095274051891829e-01  8.0290563848056584e-01  8.0544043123618292e-01  8.0865768205906496e-01  8.1265852542526662e-01  8.1753795294397125e-01  8.2337747723639187e-01  8.3023735510608798e-01  8.3814841968415688e-01  8.4710330886286656e-01  8.5704649024215307e-01  8.6786200971012850e-01  8.7935741611153750e-01  8.9124201796944669e-01  9.0309794699778723e-01  9.1434461399103517e-01  9.2420449558001294e-01  9.3170088755590585e-01  9.3579096650041127e-01  9.3597279663475619e-01  9.3437025393273665e-01  9.2128987286141739e-01  9.2574036182078034e-01  9.3167214021572764e-01  9.3439738300805353e-01  9.3321241219098328e-01  9.2879126024103853e-01  9.2210580598940695e-01  9.1404889895289321e-01  9.0533442148230403e-01  8.9649627412349941e-01  8.8791646260951351e-01  8.7985675165031063e-01  8.7248586508557924e-01  8.6590085911425929e-01  8.6014353826681966e-01  8.5521327729380636e-01  8.5107745187406691e-01  8.4768032574875929e-01  8.4495088646547989e-01  8.4280984613918919e-01  8.4117585071944989e-01  8.3997086292182288e-01  8.3912467488409637e-01  8.3857853545760674e-01  8.3828791532393365e-01  8.3822446053819744e-01  8.3837719147675038e-01  8.3875298861744596e-01  8.3937637511478846e-01  8.4028856887821901e-01  8.4154574540954796e-01  8.4321643750497532e-01  8.4537800577683453e-01  8.4811214475695329e-01  8.5149943364370417e-01  8.5561297837564898e-01  8.6051119328984615e-01  8.6622970291111290e-01  8.7277217937361062e-01  8.8009965774753152e-01  8.8811751195641064e-01  8.9665890834254891e-01  9.0546337966966561e-01  9.1414964182275049e-01  9.2218400784064825e-01  9.2885239622526583e-01  9.3326144638659747e-01  9.3443854801471748e-01  9.3170879584829036e-01  9.2577493160979496e-01  9.2132387683916483e-01  9.0612143132205591e-01  9.1291796602115138e-01  9.2417818230451843e-01  9.3322489339132964e-01  9.3819205815392093e-01  9.3925908453451368e-01  9.3728299851885100e-01  9.3320888922835099e-01  9.2785470509082446e-01  9.2185909631774010e-01  9.1569187535359919e-01  9.0968310234550809e-01  9.0405338748251995e-01  8.9893973811135575e-01  8.9441605733880469e-01  8.9050906878494596e-01  8.8721079622676968e-01  8.8448858319506496e-01  8.8229335725495928e-01  8.8056657864449472e-01  8.7924611740541758e-01  8.7827118445619590e-01  8.7758638561524749e-01  8.7714495081969002e-01  8.7691119172471454e-01  8.7686224289761205e-01  8.7698913547507773e-01  8.7729723474112542e-01  8.7780604708753129e-01  8.7854837286024501e-01  8.7956875637938348e-01  8.8092116872048853e-01  8.8266585541897469e-01  8.8486528772936202e-01  8.8757916314624596e-01  8.9085839175181070e-01  8.9473795680848311e-01  8.9922842685835203e-01  9.0430570599935878e-01  9.0989834471004838e-01  9.1587144907701379e-01  9.2200607403082568e-01  9.2797332915519659e-01  9.3330408253212394e-01  9.3735991850092826e-01  9.3932273756061857e-01  9.3824697370869226e-01  9.3327484895339097e-01  9.2422597739743717e-01  9.1296526978663384e-01  9.0616874570751316e-01  8.8994853122358841e-01  8.9863569114350650e-01  9.1432368757192617e-01  9.2882338578264101e-01  9.3927815279215465e-01  9.4536519357849369e-01  9.4776838999530966e-01  9.4743323271983315e-01  9.4524827608888273e-01  9.4193834065692372e-01  9.3805161001975579e-01  9.3398186156051177e-01  9.2999929032267104e-01  9.2627943734376150e-01  9.2292707916785199e-01  9.1999495001299070e-01  9.1749817356190777e-01  9.1542543051487157e-01  9.1374772471653165e-01  9.1242537703895055e-01  9.1141366948500957e-01  9.1066741113387606e-01  9.1014460075188230e-01  9.0980930435131047e-01  9.0963383373055118e-01  9.0960029079723892e-01  9.0970152356139411e-01  9.0994151899539355e-01  9.1033523502372216e-01  9.1090785048176270e-01  9.1169339044685871e-01  9.1273266659849728e-01  9.1407045763508921e-01  9.1575183899364210e-01  9.1781754518651049e-01  9.2029819820857950e-01  9.2320714494337341e-01  9.2653150051284827e-01  9.3022079017117698e-01  9.3417234778177272e-01  9.3821246112638290e-01  9.4207239604577797e-01  9.4535942786209970e-01  9.4752601444895390e-01  9.4784758405277447e-01  9.4543546073964757e-01  9.3934367425423493e-01  9.2888750812226029e-01  9.1438858577556459e-01  8.9870211261761512e-01  8.9001569109019008e-01  8.7355521219246313e-01  8.8376549389171355e-01  9.0308892775201310e-01  9.2216850629273872e-01  9.3733076290629724e-01  9.4779563711285997e-01  9.5405888624107560e-01  9.5703693428341463e-01  9.5766368137856994e-01  9.5673300916218806e-01  9.5486112151778768e-01  9.5249955266490471e-01  9.4996457291339764e-01  9.4746790178387252e-01  9.4514321130001333e-01  9.4306722749921690e-01  9.4127593282658784e-01  9.3977685274230760e-01  9.3855838902462885e-01  9.3759697546474796e-01  9.3686262441514012e-01  9.3632325883962886e-01  9.3594809606928120e-01  9.3571026098997034e-01  9.3558874709832363e-01  9.3556980320441840e-01  9.3564779343101834e-01  9.3582555336750384e-01  9.3611424302780299e-01  9.3653267642421933e-01  9.3710608736577461e-01  9.3786427014050611e-01  9.3883900894447392e-01  9.4006067555571293e-01  9.4155382203741611e-01  9.4333151285713035e-01  9.4538801716074328e-01  9.4768931092864739e-01  9.5016063179395671e-01  9.5267014007279027e-01  9.5500771371345117e-01  9.5685837859005385e-01  9.5777156225695181e-01  9.5713167689008694e-01  9.5414510461739566e-01  9.4787783680610749e-01  9.3741292514129948e-01  9.2225361700508213e-01  9.0317848925186794e-01  8.8385913643556613e-01  8.7365052013348576e-01  8.5749691593889399e-01  8.6894346350615703e-01  8.9125732975302341e-01  9.1415876901783788e-01  9.3329964773745400e-01  9.4749946653596506e-01  9.5707328620873910e-01  9.6289622898348526e-01  9.6593192038605524e-01  9.6703050043950756e-01  9.6686731058753717e-01  9.6594591644692207e-01  9.6462497456688456e-01  9.6314978279920471e-01  9.6168073704600809e-01  9.6031641257877243e-01  9.5911134027333333e-01  9.5808936190315586e-01  9.5725357839784542e-01  9.5659377302409754e-01  9.5609199127856037e-01  9.5572677035500664e-01  9.5547635914993045e-01  9.5532115726981537e-01  9.5524552190833711e-01  9.5523903610311534e-01  9.5529729275836006e-01  9.5542221961938967e-01  9.5562194659462163e-01  9.5591019528788357e-01  9.5630514870074690e-01  9.5682773363073725e-01  9.5749921463395304e-01  9.5833794969508979e-01  9.5935508504103795e-01  9.6054886006242868e-01  9.6189704555656730e-01  9.6334685116965213e-01  9.6480143657356976e-01  9.6610202523780342e-01  9.6700474365550937e-01  9.6715211552469160e-01  9.6604148471239759e-01  9.6299812869204904e-01  9.5717220171047290e-01  9.4759997842475552e-01  9.3340572958188717e-01  9.1427314992780107e-01  8.9138079385785274e-01  8.6907428069954762e-01  8.5763059004565412e-01  8.4216881624416429e-01  8.5462807685369913e-01  8.7941826147001212e-01  9.0551596946260127e-01  9.2800935628315417e-01  9.4537046499736843e-01  9.5774936543434608e-01  9.6597731149252219e-01  9.7103898337221650e-01  9.7383190402443409e-01  9.7508349664938465e-01  9.7534429788267230e-01  9.7501179994635734e-01  9.7436224802641302e-01  9.7358056629099354e-01  9.7278509375024813e-01  9.7204675887908376e-01  9.7140344831529246e-01  9.7087060066058350e-01  9.7044898049957351e-01  9.7013039848746818e-01  9.6990194491568171e-01  9.6974913577608013e-01  9.6965824155906477e-01  9.6961797667788796e-01  9.6962066348325460e-01  9.6966294016562748e-01  9.6974604823093946e-01  9.6987570659446087e-01  9.7006155190082288e-01  9.7031609604910318e-01  9.7065311928692521e-01  9.7108537571022258e-01  9.7162142972914856e-01  9.7226135701115624e-01  9.7299092177548774e-01  9.7377367904104206e-01  9.7454025383638954e-01  9.7517385842521276e-01  9.7549102798042231e-01  9.7521682401374965e-01  9.7395487310701956e-01  9.7115554735842480e-01  9.6609209191136813e-01  9.5786734523382988e-01  9.4549655127973009e-01  9.2814774028338265e-01  9.0566925558563760e-01  8.7958646954838160e-01  8.5480781913242143e-01  8.4235294719542764e-01  8.2785173384323019e-01  8.4114707980545733e-01  8.6800163327598112e-01  8.9678436266485728e-01  9.2210720820187242e-01  9.4214044617199277e-01  9.5688644256786026e-01  9.6713436669066188e-01  9.7388521658650407e-01  9.7807759810974670e-01  9.8048530716883175e-01  9.8170133415107319e-01  9.8215858254655808e-01  9.8216158827802991e-01  9.8191758731555268e-01  9.8156266216402344e-01  9.8118217424526655e-01  9.8082609833958678e-01  9.8052028465623675e-01  9.8027464999990099e-01  9.8008912102974810e-01  9.7995794753582699e-01  9.7987282462076541e-01  9.7982512630978713e-01  9.7980745858991092e-01  9.7981467752743601e-01  9.7984447449005596e-01  9.7989759282666933e-01  9.7997770035776099e-01  9.8009089759041768e-01  9.8024479498140538e-01  9.8044704601180610e-01  9.8070317376939908e-01  9.8101346799069522e-01  9.8136864326940954e-01  9.8174382408722083e-01  9.8209025310187825e-01  9.8232391915357886e-01  9.8231012238824444e-01  9.8184296438749985e-01  9.8061915201568139e-01  9.7820690247422160e-01  9.7401420210160228e-01  9.6726804270045152e-01  9.5703031047775022e-01  9.4229999703776091e-01  9.2228710132409630e-01  8.9698723786038825e-01  8.6822670572150817e-01  8.4138896256192441e-01  8.2809995180876761e-01  8.1474235592227351e-01  8.2873109289797453e-01  8.5731356662908154e-01  8.8835871752178763e-01  9.1607369513312809e-01  9.3836626964244529e-01  9.5510761252997722e-01  9.6704810569136401e-01  9.7520215044171621e-01  9.8054446621758973e-01  9.8389023090029337e-01  9.8587062792323288e-01  9.8695054259090853e-01  9.8746004222124117e-01  9.8762636875796728e-01  9.8760131923087391e-01  9.8748283296979200e-01  9.8733126434532903e-01  9.8718134627365606e-01  9.8705086818517895e-01  9.8694691931515721e-01  9.8687033533733248e-01  9.8681880129519528e-01  9.8678893182127692e-01  9.8677757157241874e-01  9.8678251879704670e-01  9.8680284748782154e-01  9.8683896363867452e-01  9.8689246533987163e-01  9.8696578904026344e-01  9.8706153296945887e-01  9.8718127183814253e-01  9.8732362025222764e-01  9.8748125343344995e-01  9.8763652784200751e-01  9.8775523605291693e-01  9.8777786856994543e-01  9.8760755701963487e-01  9.8709370348035519e-01  9.8601031280948093e-01  9.8402855912276699e-01  9.8068476250765202e-01  9.7534887933073733e-01  9.6720673933755885e-01  9.5528434204229273e-01  9.3856741492644113e-01  9.1630464811502910e-01  8.8862234135632345e-01  8.5760825064704715e-01  8.2904909200265475e-01  8.1506910900042429e-01  8.0297263734304924e-01  8.1753649517645388e-01  8.4756508806487063e-01  8.8051565920178709e-01  9.1025128232338148e-01  9.3445181251921161e-01  9.5287250717484628e-01  9.6622852891924793e-01  9.7554540475206120e-01  9.8182949518284324e-01  9.8593259277616663e-01  9.8851980186154831e-01  9.9008440430660616e-01  9.9097902687696759e-01  9.9144841002972328e-01  9.9165789522836234e-01  9.9171610347784778e-01  9.9169215670145772e-01  9.9162841695433901e-01  9.9154976363752401e-01  9.9147024777092807e-01  9.9139773234697659e-01  9.9133693787020316e-01  9.9129120291370076e-01  9.9126324470348004e-01  9.9125523362985501e-01  9.9126852182133041e-01  9.9130333138930560e-01  9.9135858435294422e-01  9.9143186443198550e-01  9.9151930089792595e-01  9.9161501958372289e-01  9.9170974367374631e-01  9.9178812464006771e-01  9.9182438544055473e-01  9.9177580679328292e-01  9.9157345501871086e-01  9.9110935638341535e-01  9.9021915209662215e-01  9.8865930338152752e-01  9.8607851864115170e-01  9.8198492920376845e-01  9.7571487075394081e-01  9.6641791989480164e-01  9.5308879760387477e-01  9.3470235615207764e-01  9.1054246320914456e-01  8.8085077467965733e-01  8.4794171679768049e-01  8.1794420146280433e-01  8.0339200894521734e-01  7.9262203862678660e-01  8.0766055293224615e-01  8.3889320040594595e-01  8.7344025865007013e-01  9.0487419581879602e-01  9.3067836288856509e-01  9.5050633248310357e-01  9.6504145507928019e-01  9.7531818605237619e-01  9.8237009641726958e-01  9.8708074430962056e-01  9.9014467939217043e-01  9.9207970253992839e-01  9.9325768391450453e-01  9.9393799314836517e-01  9.9429700085132477e-01  9.9445182908280172e-01  9.9447859598796751e-01  9.9442609584772057e-01  9.9432590107657326e-01  9.9419965219201034e-01  9.9406402549104644e-01  9.9393366227394819e-01  9.9382228315750698e-01  9.9374231321330797e-01  9.9370354796402327e-01  9.9371156528877758e-01  9.9376658724728917e-01  9.9386324464615550e-01  9.9399125563854696e-01  9.9413656903643377e-01  9.9428222429268642e-01  9.9440812484143215e-01  9.9448905416550593e-01  9.9449044298140021e-01  9.9436148389661816e-01  9.9402512153980727e-01  9.9336425046489862e-01  9.9220325140197874e-01  9.9028401820216883e-01  9.8723628195909008e-01  9.8254406231621128e-01  9.7551475436114499e-01  9.6526672865598795e-01  9.5076804129980519e-01  9.3098502091423518e-01  9.0523340322401435e-01  8.7385596783380370e-01  8.3936224878839394e-01  8.0816956781351224e-01  7.9314608408745069e-01  7.8372533031819425e-01  7.9915143742888106e-01  8.3137586243088069e-01  8.6724652331057395e-01  9.0009354858628132e-01  9.2723296929781551e-01  9.4823011216699959e-01  9.6373967279187778e-01  9.7480271585043043e-01  9.8247544089112981e-01  9.8766809131904487e-01  9.9109986382762127e-01  9.9330878555690771e-01  9.9468214770742347e-01  9.9549048758117187e-01  9.9591803061821527e-01  9.9608754291014068e-01  9.9607977416708449e-01  9.9594841181372651e-01  9.9573146873490970e-01  9.9545970242535053e-01  9.9516226586154644e-01  9.9486951842998783e-01  9.9461294051045457e-01  9.9442246746653840e-01  9.9432218043309573e-01  9.9432585595886991e-01  9.9443400230570911e-01  9.9463348255317896e-01  9.9489978901351339e-01  9.9520095016700405e-01  9.9550140944243926e-01  9.9576422327219316e-01  9.9595042061930772e-01  9.9601497528875160e-01  9.9589923492630528e-01  9.9551969202794610e-01  9.9475274281996717e-01  9.9341477027161162e-01  9.9123682201393637e-01  9.8783380292460843e-01  9.8267024908694778e-01  9.7502972443374025e-01  9.6400475030079169e-01  9.4854154063668050e-01  9.2760042159763167e-01  9.0052598822137919e-01  8.6774876684866753e-01  8.3194414575776610e-01  7.9976936168860258e-01  7.8436198651217925e-01  7.7627803266873896e-01  7.9201527698770013e-01  8.2504280834475074e-01  8.6199273783131625e-01  8.9599697298458247e-01  9.2423164684453785e-01  9.4618664989818191e-01  9.6249095462863332e-01  9.7418976837897586e-01  9.8235714720319278e-01  9.8792466147860947e-01  9.9163096265071804e-01  9.9402947203301228e-01  9.9551836177523156e-01  9.9637494994046816e-01  9.9678700167867607e-01  9.9687875837847717e-01  9.9673189322651679e-01  9.9640235090349660e-01  9.9593392198294672e-01  9.9536884802858072e-01  9.9475505905491457e-01  9.9414914764487483e-01  9.9361425888479404e-01  9.9321297422092136e-01  9.9299684558308765e-01  9.9299579750367917e-01  9.9321115945238958e-01  9.9361497676093558e-01  9.9415579644044649e-01  9.9476854885408450e-01  9.9538474557856294e-01  9.9593948702024993e-01  9.9637321267406687e-01  9.9662774199734327e-01  9.9663716582564155e-01  9.9631432575551793e-01  9.9553318985139150e-01  9.9410683113417619e-01  9.9176041866240394e-01  9.8809918931882645e-01  9.8257359214441065e-01  9.7444902798287791e-01  9.6279791329619957e-01  9.4654970336873068e-01  9.2466144304019371e-01  8.9650386079322020e-01  8.6258256642104436e-01  8.2571143458315077e-01  7.9274342049970636e-01  7.7702873441272458e-01  7.7024101164415149e-01  7.8622186869089539e-01  8.1988391275696493e-01  8.5769313695747706e-01  8.9262362234541781e-01  9.2173737258021271e-01  9.4446105781022160e-01  9.6140067442381338e-01  9.7360300824765644e-01  9.8215505105085443e-01  9.8800407380066835e-01  9.9190254810475209e-01  9.9441377685595300e-01  9.9594127644230634e-01  9.9676336209152316e-01  9.9706516205667084e-01  9.9696590319163991e-01  9.9654185007884721e-01  9.9584605445967811e-01  9.9492577508074409e-01  9.9383742350944815e-01  9.9265752052331369e-01  9.9148698897987619e-01  9.9044603473187520e-01  9.8965868970796067e-01  9.8922979267415045e-01  9.8922125823613249e-01  9.8963632881036789e-01  9.9041818394290049e-01  9.9146342930212239e-01  9.9264481124633686e-01  9.9383444559057910e-01  9.9492004960090352e-01  9.9581053386980201e-01  9.9643121321717520e-01  9.9671106979303536e-01  9.9656469370700773e-01  9.9587048459690020e-01  9.9444539206368765e-01  9.9201568376670901e-01  9.8818358402152084e-01  9.8239189849920061e-01  9.7389422044584850e-01  9.6174902396776285e-01  9.4487432423720130e-01  9.2222675952037769e-01  8.9320071206396412e-01  8.5836490704093082e-01  8.2064615462994916e-01  7.8705287277840452e-01  7.7109821630019026e-01  7.6554523858196455e-01  7.8171015418773182e-01  8.1585636942082285e-01  8.5432724699352325e-01  8.8997576840097414e-01  9.1977381530958768e-01  9.4309639897223807e-01  9.6052912647624356e-01  9.7311777391385712e-01  9.8195727402489441e-01  9.8800473952831835e-01  9.9202034403825023e-01  9.9457091479361925e-01  9.9605842715132498e