<?xml version="1.0"?>
<VTKFile type="UnstructuredGrid"  version="0.1"  >
<UnstructuredGrid>
<Piece  NumberOfPoints="5101" NumberOfCells="10000">
<Points>
<DataArray  type="Float64"  NumberOfComponents="3"  format="ascii">0 0 0  0.2 0 0  0.4 0 0  0.6 0 0  0.8 0 0  1 0 0  1.2 0 0  1.4 0 0  1.6 0 0  1.8 0 0  2 0 0  2.2 0 0  2.4 0 0  2.6 0 0  2.8 0 0  3 0 0  3.2 0 0  3.4 0 0  3.6 0 0  3.8 0 0  4 0 0  4.2 0 0  4.4 0 0  4.6 0 0  4.8 0 0  5 0 0  5.2 0 0  5.4 0 0  5.6 0 0  5.8 0 0  6 0 0  6.2 0 0  6.4 0 0  6.6 0 0  6.8 0 0  7 0 0  7.2 0 0  7.4 0 0  7.6 0 0  7.8 0 0  8 0 0  8.199999999999999 0 0  8.4 0 0  8.6 0 0  8.800000000000001 0 0  9 0 0  9.199999999999999 0 0  9.4 0 0  9.6 0 0  9.800000000000001 0 0  10 0 0  0 0.2 0  0.2 0.2 0  0.4 0.2 0  0.6 0.2 0  0.8 0.2 0  1 0.2 0  1.2 0.2 0  1.4 0.2 0  1.6 0.2 0  1.8 0.2 0  2 0.2 0  2.2 0.2 0  2.4 0.2 0  2.6 0.2 0  2.8 0.2 0  3 0.2 0  3.2 0.2 0  3.4 0.2 0  3.6 0.2 0  3.8 0.2 0  4 0.2 0  4.2 0.2 0  4.4 0.2 0  4.6 0.2 0  4.8 0.2 0  5 0.2 0  5.2 0.2 0  5.4 0.2 0  5.6 0.2 0  5.8 0.2 0  6 0.2 0  6.2 0.2 0  6.4 0.2 0  6.6 0.2 0  6.8 0.2 0  7 0.2 0  7.2 0.2 0  7.4 0.2 0  7.6 0.2 0  7.8 0.2 0  8 0.2 0  8.199999999999999 0.2 0  8.4 0.2 0  8.6 0.2 0  8.800000000000001 0.2 0  9 0.2 0  9.199999999999999 0.2 0  9.4 0.2 0  9.6 0.2 0  9.800000000000001 0.2 0  10 0.2 0  0 0.4 0  0.2 0.4 0  0.4 0.4 0  0.6 0.4 0  0.8 0.4 0  1 0.4 0  1.2 0.4 0  1.4 0.4 0  1.6 0.4 0  1.8 0.4 0  2 0.4 0  2.2 0.4 0  2.4 0.4 0  2.6 0.4 0  2.8 0.4 0  3 0.4 0  3.2 0.4 0  3.4 0.4 0  3.6 0.4 0  3.8 0.4 0  4 0.4 0  4.2 0.4 0  4.4 0.4 0  4.6 0.4 0  4.8 0.4 0  5 0.4 0  5.2 0.4 0  5.4 0.4 0  5.6 0.4 0  5.8 0.4 0  6 0.4 0  6.2 0.4 0  6.4 0.4 0  6.6 0.4 0  6.8 0.4 0  7 0.4 0  7.2 0.4 0  7.4 0.4 0  7.6 0.4 0  7.8 0.4 0  8 0.4 0  8.199999999999999 0.4 0  8.4 0.4 0  8.6 0.4 0  8.800000000000001 0.4 0  9 0.4 0  9.199999999999999 0.4 0  9.4 0.4 0  9.6 0.4 0  9.800000000000001 0.4 0  10 0.4 0  0 0.6 0  0.2 0.6 0  0.4 0.6 0  0.6 0.6 0  0.8 0.6 0  1 0.6 0  1.2 0.6 0  1.4 0.6 0  1.6 0.6 0  1.8 0.6 0  2 0.6 0  2.2 0.6 0  2.4 0.6 0  2.6 0.6 0  2.8 0.6 0  3 0.6 0  3.2 0.6 0  3.4 0.6 0  3.6 0.6 0  3.8 0.6 0  4 0.6 0  4.2 0.6 0  4.4 0.6 0  4.6 0.6 0  4.8 0.6 0  5 0.6 0  5.2 0.6 0  5.4 0.6 0  5.6 0.6 0  5.8 0.6 0  6 0.6 0  6.2 0.6 0  6.4 0.6 0  6.6 0.6 0  6.8 0.6 0  7 0.6 0  7.2 0.6 0  7.4 0.6 0  7.6 0.6 0  7.8 0.6 0  8 0.6 0  8.199999999999999 0.6 0  8.4 0.6 0  8.6 0.6 0  8.800000000000001 0.6 0  9 0.6 0  9.199999999999999 0.6 0  9.4 0.6 0  9.6 0.6 0  9.800000000000001 0.6 0  10 0.6 0  0 0.8 0  0.2 0.8 0  0.4 0.8 0  0.6 0.8 0  0.8 0.8 0  1 0.8 0  1.2 0.8 0  1.4 0.8 0  1.6 0.8 0  1.8 0.8 0  2 0.8 0  2.2 0.8 0  2.4 0.8 0  2.6 0.8 0  2.8 0.8 0  3 0.8 0  3.2 0.8 0  3.4 0.8 0  3.6 0.8 0  3.8 0.8 0  4 0.8 0  4.2 0.8 0  4.4 0.8 0  4.6 0.8 0  4.8 0.8 0  5 0.8 0  5.2 0.8 0  5.4 0.8 0  5.6 0.8 0  5.8 0.8 0  6 0.8 0  6.2 0.8 0  6.4 0.8 0  6.6 0.8 0  6.8 0.8 0  7 0.8 0  7.2 0.8 0  7.4 0.8 0  7.6 0.8 0  7.8 0.8 0  8 0.8 0  8.199999999999999 0.8 0  8.4 0.8 0  8.6 0.8 0  8.800000000000001 0.8 0  9 0.8 0  9.199999999999999 0.8 0  9.4 0.8 0  9.6 0.8 0  9.800000000000001 0.8 0  10 0.8 0  0 1 0  0.2 1 0  0.4 1 0  0.6 1 0  0.8 1 0  1 1 0  1.2 1 0  1.4 1 0  1.6 1 0  1.8 1 0  2 1 0  2.2 1 0  2.4 1 0  2.6 1 0  2.8 1 0  3 1 0  3.2 1 0  3.4 1 0  3.6 1 0  3.8 1 0  4 1 0  4.2 1 0  4.4 1 0  4.6 1 0  4.8 1 0  5 1 0  5.2 1 0  5.4 1 0  5.6 1 0  5.8 1 0  6 1 0  6.2 1 0  6.4 1 0  6.6 1 0  6.8 1 0  7 1 0  7.2 1 0  7.4 1 0  7.6 1 0  7.8 1 0  8 1 0  8.199999999999999 1 0  8.4 1 0  8.6 1 0  8.800000000000001 1 0  9 1 0  9.199999999999999 1 0  9.4 1 0  9.6 1 0  9.800000000000001 1 0  10 1 0  0 1.2 0  0.2 1.2 0  0.4 1.2 0  0.6 1.2 0  0.8 1.2 0  1 1.2 0  1.2 1.2 0  1.4 1.2 0  1.6 1.2 0  1.8 1.2 0  2 1.2 0  2.2 1.2 0  2.4 1.2 0  2.6 1.2 0  2.8 1.2 0  3 1.2 0  3.2 1.2 0  3.4 1.2 0  3.6 1.2 0  3.8 1.2 0  4 1.2 0  4.2 1.2 0  4.4 1.2 0  4.6 1.2 0  4.8 1.2 0  5 1.2 0  5.2 1.2 0  5.4 1.2 0  5.6 1.2 0  5.8 1.2 0  6 1.2 0  6.2 1.2 0  6.4 1.2 0  6.6 1.2 0  6.8 1.2 0  7 1.2 0  7.2 1.2 0  7.4 1.2 0  7.6 1.2 0  7.8 1.2 0  8 1.2 0  8.199999999999999 1.2 0  8.4 1.2 0  8.6 1.2 0  8.800000000000001 1.2 0  9 1.2 0  9.199999999999999 1.2 0  9.4 1.2 0  9.6 1.2 0  9.800000000000001 1.2 0  10 1.2 0  0 1.4 0  0.2 1.4 0  0.4 1.4 0  0.6 1.4 0  0.8 1.4 0  1 1.4 0  1.2 1.4 0  1.4 1.4 0  1.6 1.4 0  1.8 1.4 0  2 1.4 0  2.2 1.4 0  2.4 1.4 0  2.6 1.4 0  2.8 1.4 0  3 1.4 0  3.2 1.4 0  3.4 1.4 0  3.6 1.4 0  3.8 1.4 0  4 1.4 0  4.2 1.4 0  4.4 1.4 0  4.6 1.4 0  4.8 1.4 0  5 1.4 0  5.2 1.4 0  5.4 1.4 0  5.6 1.4 0  5.8 1.4 0  6 1.4 0  6.2 1.4 0  6.4 1.4 0  6.6 1.4 0  6.8 1.4 0  7 1.4 0  7.2 1.4 0  7.4 1.4 0  7.6 1.4 0  7.8 1.4 0  8 1.4 0  8.199999999999999 1.4 0  8.4 1.4 0  8.6 1.4 0  8.800000000000001 1.4 0  9 1.4 0  9.199999999999999 1.4 0  9.4 1.4 0  9.6 1.4 0  9.800000000000001 1.4 0  10 1.4 0  0 1.6 0  0.2 1.6 0  0.4 1.6 0  0.6 1.6 0  0.8 1.6 0  1 1.6 0  1.2 1.6 0  1.4 1.6 0  1.6 1.6 0  1.8 1.6 0  2 1.6 0  2.2 1.6 0  2.4 1.6 0  2.6 1.6 0  2.8 1.6 0  3 1.6 0  3.2 1.6 0  3.4 1.6 0  3.6 1.6 0  3.8 1.6 0  4 1.6 0  4.2 1.6 0  4.4 1.6 0  4.6 1.6 0  4.8 1.6 0  5 1.6 0  5.2 1.6 0  5.4 1.6 0  5.6 1.6 0  5.8 1.6 0  6 1.6 0  6.2 1.6 0  6.4 1.6 0  6.6 1.6 0  6.8 1.6 0  7 1.6 0  7.2 1.6 0  7.4 1.6 0  7.6 1.6 0  7.8 1.6 0  8 1.6 0  8.199999999999999 1.6 0  8.4 1.6 0  8.6 1.6 0  8.800000000000001 1.6 0  9 1.6 0  9.199999999999999 1.6 0  9.4 1.6 0  9.6 1.6 0  9.800000000000001 1.6 0  10 1.6 0  0 1.8 0  0.2 1.8 0  0.4 1.8 0  0.6 1.8 0  0.8 1.8 0  1 1.8 0  1.2 1.8 0  1.4 1.8 0  1.6 1.8 0  1.8 1.8 0  2 1.8 0  2.2 1.8 0  2.4 1.8 0  2.6 1.8 0  2.8 1.8 0  3 1.8 0  3.2 1.8 0  3.4 1.8 0  3.6 1.8 0  3.8 1.8 0  4 1.8 0  4.2 1.8 0  4.4 1.8 0  4.6 1.8 0  4.8 1.8 0  5 1.8 0  5.2 1.8 0  5.4 1.8 0  5.6 1.8 0  5.8 1.8 0  6 1.8 0  6.2 1.8 0  6.4 1.8 0  6.6 1.8 0  6.8 1.8 0  7 1.8 0  7.2 1.8 0  7.4 1.8 0  7.6 1.8 0  7.8 1.8 0  8 1.8 0  8.199999999999999 1.8 0  8.4 1.8 0  8.6 1.8 0  8.800000000000001 1.8 0  9 1.8 0  9.199999999999999 1.8 0  9.4 1.8 0  9.6 1.8 0  9.800000000000001 1.8 0  10 1.8 0  0 2 0  0.2 2 0  0.4 2 0  0.6 2 0  0.8 2 0  1 2 0  1.2 2 0  1.4 2 0  1.6 2 0  1.8 2 0  2 2 0  2.2 2 0  2.4 2 0  2.6 2 0  2.8 2 0  3 2 0  3.2 2 0  3.4 2 0  3.6 2 0  3.8 2 0  4 2 0  4.2 2 0  4.4 2 0  4.6 2 0  4.8 2 0  5 2 0  5.2 2 0  5.4 2 0  5.6 2 0  5.8 2 0  6 2 0  6.2 2 0  6.4 2 0  6.6 2 0  6.8 2 0  7 2 0  7.2 2 0  7.4 2 0  7.6 2 0  7.8 2 0  8 2 0  8.199999999999999 2 0  8.4 2 0  8.6 2 0  8.800000000000001 2 0  9 2 0  9.199999999999999 2 0  9.4 2 0  9.6 2 0  9.800000000000001 2 0  10 2 0  0 2.2 0  0.2 2.2 0  0.4 2.2 0  0.6 2.2 0  0.8 2.2 0  1 2.2 0  1.2 2.2 0  1.4 2.2 0  1.6 2.2 0  1.8 2.2 0  2 2.2 0  2.2 2.2 0  2.4 2.2 0  2.6 2.2 0  2.8 2.2 0  3 2.2 0  3.2 2.2 0  3.4 2.2 0  3.6 2.2 0  3.8 2.2 0  4 2.2 0  4.2 2.2 0  4.4 2.2 0  4.6 2.2 0  4.8 2.2 0  5 2.2 0  5.2 2.2 0  5.4 2.2 0  5.6 2.2 0  5.8 2.2 0  6 2.2 0  6.2 2.2 0  6.4 2.2 0  6.6 2.2 0  6.8 2.2 0  7 2.2 0  7.2 2.2 0  7.4 2.2 0  7.6 2.2 0  7.8 2.2 0  8 2.2 0  8.199999999999999 2.2 0  8.4 2.2 0  8.6 2.2 0  8.800000000000001 2.2 0  9 2.2 0  9.199999999999999 2.2 0  9.4 2.2 0  9.6 2.2 0  9.800000000000001 2.2 0  10 2.2 0  0 2.4 0  0.2 2.4 0  0.4 2.4 0  0.6 2.4 0  0.8 2.4 0  1 2.4 0  1.2 2.4 0  1.4 2.4 0  1.6 2.4 0  1.8 2.4 0  2 2.4 0  2.2 2.4 0  2.4 2.4 0  2.6 2.4 0  2.8 2.4 0  3 2.4 0  3.2 2.4 0  3.4 2.4 0  3.6 2.4 0  3.8 2.4 0  4 2.4 0  4.2 2.4 0  4.4 2.4 0  4.6 2.4 0  4.8 2.4 0  5 2.4 0  5.2 2.4 0  5.4 2.4 0  5.6 2.4 0  5.8 2.4 0  6 2.4 0  6.2 2.4 0  6.4 2.4 0  6.6 2.4 0  6.8 2.4 0  7 2.4 0  7.2 2.4 0  7.4 2.4 0  7.6 2.4 0  7.8 2.4 0  8 2.4 0  8.199999999999999 2.4 0  8.4 2.4 0  8.6 2.4 0  8.800000000000001 2.4 0  9 2.4 0  9.199999999999999 2.4 0  9.4 2.4 0  9.6 2.4 0  9.800000000000001 2.4 0  10 2.4 0  0 2.6 0  0.2 2.6 0  0.4 2.6 0  0.6 2.6 0  0.8 2.6 0  1 2.6 0  1.2 2.6 0  1.4 2.6 0  1.6 2.6 0  1.8 2.6 0  2 2.6 0  2.2 2.6 0  2.4 2.6 0  2.6 2.6 0  2.8 2.6 0  3 2.6 0  3.2 2.6 0  3.4 2.6 0  3.6 2.6 0  3.8 2.6 0  4 2.6 0  4.2 2.6 0  4.4 2.6 0  4.6 2.6 0  4.8 2.6 0  5 2.6 0  5.2 2.6 0  5.4 2.6 0  5.6 2.6 0  5.8 2.6 0  6 2.6 0  6.2 2.6 0  6.4 2.6 0  6.6 2.6 0  6.8 2.6 0  7 2.6 0  7.2 2.6 0  7.4 2.6 0  7.6 2.6 0  7.8 2.6 0  8 2.6 0  8.199999999999999 2.6 0  8.4 2.6 0  8.6 2.6 0  8.800000000000001 2.6 0  9 2.6 0  9.199999999999999 2.6 0  9.4 2.6 0  9.6 2.6 0  9.800000000000001 2.6 0  10 2.6 0  0 2.8 0  0.2 2.8 0  0.4 2.8 0  0.6 2.8 0  0.8 2.8 0  1 2.8 0  1.2 2.8 0  1.4 2.8 0  1.6 2.8 0  1.8 2.8 0  2 2.8 0  2.2 2.8 0  2.4 2.8 0  2.6 2.8 0  2.8 2.8 0  3 2.8 0  3.2 2.8 0  3.4 2.8 0  3.6 2.8 0  3.8 2.8 0  4 2.8 0  4.2 2.8 0  4.4 2.8 0  4.6 2.8 0  4.8 2.8 0  5 2.8 0  5.2 2.8 0  5.4 2.8 0  5.6 2.8 0  5.8 2.8 0  6 2.8 0  6.2 2.8 0  6.4 2.8 0  6.6 2.8 0  6.8 2.8 0  7 2.8 0  7.2 2.8 0  7.4 2.8 0  7.6 2.8 0  7.8 2.8 0  8 2.8 0  8.199999999999999 2.8 0  8.4 2.8 0  8.6 2.8 0  8.800000000000001 2.8 0  9 2.8 0  9.199999999999999 2.8 0  9.4 2.8 0  9.6 2.8 0  9.800000000000001 2.8 0  10 2.8 0  0 3 0  0.2 3 0  0.4 3 0  0.6 3 0  0.8 3 0  1 3 0  1.2 3 0  1.4 3 0  1.6 3 0  1.8 3 0  2 3 0  2.2 3 0  2.4 3 0  2.6 3 0  2.8 3 0  3 3 0  3.2 3 0  3.4 3 0  3.6 3 0  3.8 3 0  4 3 0  4.2 3 0  4.4 3 0  4.6 3 0  4.8 3 0  5 3 0  5.2 3 0  5.4 3 0  5.6 3 0  5.8 3 0  6 3 0  6.2 3 0  6.4 3 0  6.6 3 0  6.8 3 0  7 3 0  7.2 3 0  7.4 3 0  7.6 3 0  7.8 3 0  8 3 0  8.199999999999999 3 0  8.4 3 0  8.6 3 0  8.800000000000001 3 0  9 3 0  9.199999999999999 3 0  9.4 3 0  9.6 3 0  9.800000000000001 3 0  10 3 0  0 3.2 0  0.2 3.2 0  0.4 3.2 0  0.6 3.2 0  0.8 3.2 0  1 3.2 0  1.2 3.2 0  1.4 3.2 0  1.6 3.2 0  1.8 3.2 0  2 3.2 0  2.2 3.2 0  2.4 3.2 0  2.6 3.2 0  2.8 3.2 0  3 3.2 0  3.2 3.2 0  3.4 3.2 0  3.6 3.2 0  3.8 3.2 0  4 3.2 0  4.2 3.2 0  4.4 3.2 0  4.6 3.2 0  4.8 3.2 0  5 3.2 0  5.2 3.2 0  5.4 3.2 0  5.6 3.2 0  5.8 3.2 0  6 3.2 0  6.2 3.2 0  6.4 3.2 0  6.6 3.2 0  6.8 3.2 0  7 3.2 0  7.2 3.2 0  7.4 3.2 0  7.6 3.2 0  7.8 3.2 0  8 3.2 0  8.199999999999999 3.2 0  8.4 3.2 0  8.6 3.2 0  8.800000000000001 3.2 0  9 3.2 0  9.199999999999999 3.2 0  9.4 3.2 0  9.6 3.2 0  9.800000000000001 3.2 0  10 3.2 0  0 3.4 0  0.2 3.4 0  0.4 3.4 0  0.6 3.4 0  0.8 3.4 0  1 
[...]
<PointData  Scalars="f_8"> 
<DataArray  type="Float64"  Name="f_8"  format="ascii">-1.3352307768439502e-02  -5.2674440354453693e-03  -1.6527438428145557e-03  -3.9867790222211988e-04  5.5102454172621911e-04  1.1981747207399471e-03  1.6743099540968544e-03  2.0325481092596550e-03  2.3070741611932607e-03  2.5203005006121716e-03  2.6873761994459745e-03  2.8187709916403917e-03  2.9217360869697021e-03  3.0012033400051551e-03  3.0603732197272871e-03  3.1011236755920635e-03  3.1243158791780883e-03  3.1300418031750673e-03  3.1178400664779739e-03  3.0868943723321982e-03  3.0362204287799786e-03  2.9648413434270535e-03  2.8719477453170790e-03  2.7570371611592131e-03  2.6200272563918028e-03  2.4613390431099140e-03  2.2819484735695150e-03  2.0834073379945371e-03  1.8678365458249355e-03  1.6378964199241781e-03  1.3967395974370017e-03  1.1479527519941881e-03  8.9549394977100417e-04  6.4363328901500996e-04  3.9690568773471214e-04  1.6008633253332611e-04  -6.1798518577054894e-05  -2.6340964199700377e-04  -4.3896139453031226e-04  -5.8198811705058231e-04  -6.8496698565851017e-04  -7.3872586262909844e-04  -7.3151058287801375e-04  -6.4746867278144308e-04  -4.6399508427349257e-04  -1.4714735494646039e-04  3.5561146328101287e-04  1.1749087842659689e-03  2.3116678928590362e-03  5.8245415446622519e-03  1.3772568648301927e-02  -1.0160916115483290e-01  -5.4399072024880035e-02  -2.8276467541517900e-02  -1.2576732934743018e-02  -2.2733293797359490e-03  4.8488243697334208e-03  9.9041308180272940e-03  1.3525950305345345e-02  1.6100786039948422e-02  1.7875919591791811e-02  1.9014263180109195e-02  1.9624986749483129e-02  1.9781992795824748e-02  1.9535865739615282e-02  1.8922123545999064e-02  1.7967266134711994e-02  1.6693422471985110e-02  1.5122009783817603e-02  1.3276587848691068e-02  1.1184954340432263e-02  8.8804559295582279e-03  6.4024721217402413e-03  3.7960567023467930e-03  1.1107850949101147e-03  -1.6010602189826344e-03  -4.2867496786787524e-03  -6.8955317647528694e-03  -9.3809174342751930e-03  -1.1702539315184286e-02  -1.3827366234263160e-02  -1.5730148603862942e-02  -1.7393073895532050e-02  -1.8804701763292613e-02  -1.9958307869395665e-02  -2.0849784721482280e-02  -2.1475225806488987e-02  -2.1828260617353431e-02  -2.1897118471413214e-02  -2.1661279386285009e-02  -2.1087410526409375e-02  -2.0124055685266345e-02  -1.8694171988432897e-02  -1.6683938990775232e-02  -1.3924957755276553e-02  -1.0164180687263172e-02  -5.0094820580759382e-03  2.1777035831547290e-03  1.2516470854220552e-02  2.8226491818570693e-02  5.4337469292080318e-02  1.0153580236594187e-01  -1.4452945091535183e-01  -8.6514119567376771e-02  -4.8927778462546409e-02  -2.3395383171930066e-02  -5.7335685683651688e-03  6.8280840346225547e-03  1.5889395740840116e-02  2.2447570513144961e-02  2.7141697892613236e-02  3.0393001877851052e-02  3.2484154213910738e-02  3.3606700450091731e-02  3.3891132982074128e-02  3.3427087020143000e-02  3.2277717497984991e-02  3.0490510221391879e-02  2.8105768225608306e-02  2.5163409385725841e-02  2.1708332760801100e-02  1.7794377384051738e-02  1.3486774865289505e-02  8.8629734943059882e-03  4.0117772830299443e-03  -9.6911823084905953e-04  -5.9769303022554031e-03  -1.0908487657289077e-02  -1.5665239638972650e-02  -2.0157936737033755e-02  -2.4310390436142512e-02  -2.8061862822361547e-02  -3.1367842961765639e-02  -3.4199190899106398e-02  -3.6539822789717395e-02  -3.8383235066774095e-02  -3.9728203411347508e-02  -4.0573944430892940e-02  -4.0914908007697467e-02  -4.0735192904491978e-02  -4.0002356236762043e-02  -3.8660108916782052e-02  -3.6619012309436101e-02  -3.3743720178207509e-02  -2.9834348066059477e-02  -2.4597801318428248e-02  -1.7601522392096898e-02  -8.1950935747365436e-03  4.6293629862069327e-03  2.2481346373254187e-02  4.8140067013436143e-02  8.5797518811650986e-02  1.4384506695646865e-01  -1.6937618787246198e-01  -1.0842619166847753e-01  -6.4093541722422362e-02  -3.2094668070718320e-02  -8.8392693846066073e-03  8.1963712688848857e-03  2.0739406274855949e-02  2.9954120492756912e-02  3.6630836672156317e-02  4.1310061969400798e-02  4.4363086966206812e-02  4.6044986749634940e-02  4.6530573244115435e-02  4.5939841065427672e-02  4.4356886074996306e-02  4.1844678175829708e-02  3.8457051047551122e-02  3.4248592217045751e-02  2.9282650430182886e-02  2.3637367795906548e-02  1.7409476186764937e-02  1.0715572833363765e-02  3.6907085608820552e-03  -3.5156349623907245e-03  -1.0745781195883727e-02  -1.7841581774786792e-02  -2.4652648275210555e-02  -3.1044010175302436e-02  -3.6902197482720590e-02  -4.2139000697782029e-02  -4.6692529316645005e-02  -5.0525585568883237e-02  -5.3621703917536970e-02  -5.5979414239814639e-02  -5.7605340242138474e-02  -5.8506653665991795e-02  -5.8683202003738236e-02  -5.8119351167799302e-02  -5.6775261572581247e-02  -5.4576947908582661e-02  -5.1404024959680217e-02  -4.7073430835342787e-02  -4.1316491259750274e-02  -3.3745183317350012e-02  -2.3800973480447234e-02  -1.0675657334677216e-02  6.8117367315683438e-03  3.0403166878914277e-02  6.2634815369696797e-02  1.0710803302924732e-01  1.6811646549711293e-01  -1.8450612348401635e-01  -1.2179203865107499e-01  -7.4002512231704898e-02  -3.7848143059446074e-02  -1.0631688933363033e-02  9.8511119295741963e-03  2.5241954848379159e-02  3.6732460631814678e-02  4.5174495764337852e-02  5.1171944012635001e-02  5.5149426148483942e-02  5.7402391134425586e-02  5.8133872766637153e-02  5.7482210528654522e-02  5.5542814319544671e-02  5.2386012334498813e-02  4.8072196965155523e-02  4.2664831313270021e-02  3.6241364435040585e-02  2.8901723194237811e-02  2.0773826243619474e-02  1.2015536389458624e-02  2.8126553597745164e-03  -6.6270418932779214e-03  -1.6083201962113439e-02  -2.5334626118864743e-02  -3.4171811131511742e-02  -4.2408576573390082e-02  -4.9891186277718706e-02  -5.6503800259439095e-02  -6.2169716037502855e-02  -6.6848518039534288e-02  -7.0529795517203564e-02  -7.3224406497437333e-02  -7.4954322662057024e-02  -7.5741918567412761e-02  -7.5599238868524044e-02  -7.4517366746950101e-02  -7.2455583174421245e-02  -6.9329572422832150e-02  -6.4997477494416658e-02  -5.9242087180692321e-02  -5.1746765984419157e-02  -4.2061843622031483e-02  -2.9557081412552037e-02  -1.3354924972108958e-02  7.7598199629510776e-03  3.5449299522767368e-02  7.1934334452508783e-02  1.1992524597120457e-01  1.8272431757181076e-01  -1.9336122442280920e-01  -1.2970472378635195e-01  -7.9764344440954038e-02  -4.0900862325788705e-02  -1.0869756987499122e-02  1.2233771625985426e-02  2.9915551557779956e-02  4.3325359341851749e-02  5.3319131706967247e-02  6.0521776426670983e-02  6.5380995891557367e-02  6.8210692565353989e-02  6.9225499439505914e-02  6.8568675653837730e-02  6.6335413027335435e-02  6.2593091576123652e-02  5.7399427357364370e-02  5.0818852657772556e-02  4.2936898516406405e-02  3.3871866347881890e-02  2.3782757216096590e-02  1.2872365265024527e-02  1.3847086851901649e-03  -1.0403420186509645e-02  -2.2196137566150992e-02  -3.3695796260056407e-02  -4.4621609345169198e-02  -5.4726871543543380e-02  -6.3812279331147012e-02  -7.1733566706356403e-02  -7.8402715766487982e-02  -8.3783087965677086e-02  -8.7879682247303803e-02  -9.0726187759125401e-02  -9.2370525053657809e-02  -9.2860240905864214e-02  -9.2228580519829975e-02  -9.0481451090052872e-02  -8.7584915967782687e-02  -8.3452365948261081e-02  -7.7930100311006723e-02  -7.0779683706538671e-02  -6.1655099630469050e-02  -5.0072432172701381e-02  -3.5369780949496860e-02  -1.6655925419021497e-02  7.2507029715129607e-03  3.7883003600087874e-02  7.7167176598170392e-02  1.2736416787598828e-01  1.9112892645437229e-01  -1.9794036489589473e-01  -1.3367494424041224e-01  -8.2348198983637239e-02  -4.1632740230445178e-02  -9.5667169026699764e-03  1.5540258980337658e-02  3.5064818251142577e-02  5.0091486827246540e-02  6.1450024730011793e-02  6.9758624667335636e-02  7.5465063453910089e-02  7.8882908196428653e-02  8.0222568257186613e-02  7.9618175959210072e-02  7.7151596142916945e-02  7.2874701148340632e-02  6.6830614777578068e-02  5.9074031765477375e-02  4.9690035825604467e-02  3.8810169936635414e-02  2.6624002655396838e-02  1.3384262887735280e-02  -5.9605300484521812e-04  -1.4955290612046708e-02  -2.9302763553059542e-02  -4.3244118990523620e-02  -5.6408836021566523e-02  -6.8475607209633138e-02  -7.9191656438761429e-02  -8.8383250564136928e-02  -9.5956419951223879e-02  -1.0188869940527143e-01  -1.0621405791498392e-01  -1.0900382676666649e-01  -1.1034634399185680e-01  -1.1032739640607936e-01  -1.0901263525323528e-01  -1.0643222157996543e-01  -1.0256718825536651e-01  -9.7336451498188967e-02  -9.0583055565903126e-02  -8.2058048840575784e-02  -7.1400345694651979e-02  -5.8111077990348835e-02  -4.1521477378837560e-02  -2.0754656348010950e-02  5.3155877594914594e-03  3.8100806675234924e-02  7.9318597791238371e-02  1.3095137967985990e-01  1.9534630025103189e-01  -1.9947206511483778e-01  -1.3479007421562625e-01  -8.2499514745092525e-02  -4.0453460925592523e-02  -6.8626672397415611e-03  1.9814978248530814e-02  4.0851220108270685e-02  5.7264550212201747e-02  6.9846342555155955e-02  7.9192349129638906e-02  8.5734632006284964e-02  8.9771508345368400e-02  9.1494919914891087e-02  9.1015736835400082e-02  8.8387981109805183e-02  8.3632960371804899e-02  7.6763942590150930e-02  6.7811340634815920e-02  5.6847479728850403e-02  4.4009019054388115e-02  2.9514216051920381e-02  1.3671773536777152e-02  -3.1216708470530635e-03  -2.0397053565463771e-02  -3.7640824809245334e-02  -5.4332087515047194e-02  -6.9983356058276255e-02  -8.4178148126829513e-02  -9.6599078276555714e-02  -1.0704217857799518e-01  -1.1541618111636569e-01  -1.2172849895949023e-01  -1.2606177850169026e-01  -1.2854572939281939e-01  -1.2932853094872349e-01  -1.2855088201413556e-01  -1.2632423009358093e-01  -1.2271331487114152e-01  -1.1772212934626074e-01  -1.1128179422567451e-01  -1.0323859761901684e-01  -9.3340475785386276e-02  -8.1220434248739828e-02  -6.6375839263479661e-02  -4.8143253455024348e-02  -2.5669726829521504e-02  2.1166639369339284e-03  3.6531760823538345e-02  7.9151655693663350e-02  1.3179102860050554e-01  1.9662131294119309e-01  -1.9877129074737682e-01  -1.3378528858808303e-01  -8.0779889702152954e-02  -3.7723056157614100e-02  -2.9353421228750808e-03  2.5022979038078704e-02  4.7343293676543365e-02  6.4986001724189710e-02  7.8701879575742484e-02  8.9056800778764128e-02  9.6457228718859131e-02  1.0117501792466134e-01  1.0337121532189351e-01  1.0311944109295672e-01  1.0042993222610254e-01  9.5275426442649691e-02  8.7619733238914838e-02  7.7449054674764511e-02  6.4804889253327447e-02  4.9815798640561994e-02  3.2723748716321818e-02  1.3899675180643341e-02  -6.1569885032477104e-03  -2.6838326773198595e-02  -4.7467525160321239e-02  -6.7353511273242475e-02  -8.5851926343474091e-02  -1.0242139118626321e-01  -1.1666469867658896e-01  -1.2834814794769231e-01  -1.3739749025225884e-01  -1.4387404621254654e-01  -1.4793791157333464e-01  -1.4980611948652120e-01  -1.4971247126336509e-01  -1.4787338273869802e-01  -1.4446150177435102e-01  -1.3958673229963120e-01  -1.3328295081438957e-01  -1.2549810069205974e-01  -1.1608531002990050e-01  -1.0479298626493198e-01  -9.1252342030769679e-02  -7.4961442334952347e-02  -5.5265657454491982e-02  -3.1335404091072480e-02  -2.1432071181666248e-03  3.3556847625720823e-02  7.7246069440641218e-02  1.3063476527001272e-01  1.9578481163000822e-01  -1.9640718894757592e-01  -1.3118527042700764e-01  -7.7615580459591160e-02  -3.3744398302875830e-02  2.0342873068325152e-03  3.1088665510048484e-02  5.4549970373342693e-02  7.3330787096609576e-02  8.8144143883471304e-02  9.9523978527005702e-02  1.0784585291088533e-01  1.1334730162488525e-01  1.1614799824809807e-01  1.1627069962382602e-01  1.1366449201858832e-01  1.0823208428158754e-01  9.9862634037340317e-02  8.8470691370099178e-02  7.4040174931437677e-02  5.6669896626276639e-02  3.6614389702650567e-02  1.4311482606699372e-02  -9.6126162442756995e-03  -3.4367826239761770e-02  -5.9055986081141404e-02  -8.2751839578032144e-02  -1.0459541057437648e-01  -1.2387744313924487e-01  -1.4010052077889176e-01  -1.5300486552860082e-01  -1.6255720701986981e-01  -1.6890988712993002e-01  -1.7234261210854918e-01  -1.7320000306600070e-01  -1.7183526620955539e-01  -1.6856581655902253e-01  -1.6364234617192214e-01  -1.5722970091769845e-01  -1.4939629142835834e-01  -1.4010835874575911e-01  -1.2922579244372326e-01  -1.1649694731551412e-01  -1.0155075683752025e-01  -8.3885281434885509e-02  -6.2852644474059027e-02  -3.7641104706650719e-02  -7.2557061158372901e-03  2.9500714447914841e-02  7.4046087537503344e-02  1.2802302745772884e-01  1.9342087491950988e-01  -1.9279730642357604e-01  -1.2738160793589307e-01  -7.3338919485779239e-02  -2.8772463194708719e-02  7.8728078756252120e-03  3.7914511677964759e-02  6.2439657380840050e-02  8.2323372952237239e-02  9.8246418980736910e-02  1.1071242992729398e-01  1.2006454681254432e-01  1.2650140943618948e-01  1.3009317004131415e-01  1.3079901085424533e-01  1.2848839981493915e-01  1.2296881539800479e-01  1.1402265540058640e-01  1.0145516274876065e-01  8.5153075519895510e-02  6.5150134570075874e-02  4.1690858587055096e-02  1.5279271603486541e-02  -1.3303363650275552e-02  -4.3025779053190986e-02  -7.2684687139354748e-02  -1.0102586526398115e-01  -1.2688628439532754e-01  -1.4932615970078728e-01  -1.6772098444748609e-01  -1.8179529386731028e-01  -1.9159712893487235e-01  -1.9742757312379780e-01  -1.9974780959038724e-01  -1.9908566638496250e-01  -1.9595717079503933e-01  -1.9081023688019164e-01  -1.8399048898170922e-01  -1.7572485373917746e-01  -1.6611689410029734e-01  -1.5514809328940196e-01  -1.4268048896258231e-01  -1.2845750763078931e-01  -1.1210117542726108e-01  -9.3104956555368018e-02  -7.0822311559245746e-02  -4.4451717656587848e-02  -1.3019314701133579e-02  2.4639657423453819e-02  6.9900809740794365e-02  1.2436149302746857e-01  1.8996015196857918e-01  -1.8826382571189143e-01  -1.2268043771237740e-01  -6.8219433905726462e-02  -2.3027482316015646e-02  1.4414344657212020e-02  4.5388063232324714e-02  7.0949324842745479e-02  9.1945857170073961e-02  1.0903338707338898e-01  1.2268989952834529e-01  1.3322823271538747e-01  1.4080727158382661e-01  1.4544274157374881e-01  1.4701960858413518e-01  1.4530920518532686e-01  1.3999522808660883e-01  1.3071332536197594e-01  1.1710850950726430e-01  9.8912283381713720e-02  7.6036391385573499e-02  4.8672380585119863e-02  1.7377017858200023e-02  -1.6883484737604936e-02  -5.2757398573689170e-02  -8.8614806155397519e-02  -1.2273029877390638e-01  -1.5350558819119911e-01  -1.7967786819380227e-01  -2.0046083208277177e-01  -2.1558727820286067e-01  -2.2525476457176474e-01  -2.3000331714865352e-01  -2.3056618251860775e-01  -2.2773019495230171e-01  -2.2222822902169534e-01  -2.1467078081590565e-01  -2.0551247559866040e-01  -1.9504380498715729e-01  -1.8339754235615266e-01  -1.7056105809883806e-01  -1.5638841923951013e-01  -1.4060866315799725e-01  -1.2282855915720309e-01  -1.0252948171056378e-01  -7.9058852795850482e-02  -5.1617115531937693e-02  -1.9241420299678028e-02  1.9213001244551022e-02  6.5093818236090367e-02  1.1996742618868622e-01  1.8573488052085410e-01  -1.8306859453077032e-01  -1.1733350362707566e-01  -6.2486117999024440e-02  -1.6707313771982750e-02  2.1496342934713794e-02  5.3382763811174502e-02  7.9987287763088014e-02  1.0214030468032131e-01  1.2048140988648715e-01  1.3547061544652472e-01  1.4739662274768703e-01  1.5638241378279646e-01  1.6238925337228524e-01  1.6522146690271214e-01  1.6453600460459147e-01  1.5986269057301641e-01  1.5064278100119310e-01  1.3629414982444088e-01  1.1630962430932343e-01  9.0388865280969150e-02  5.8592352420989140e-02  2.1489303660623328e-02  -1.9745204587739408e-02  -6.3335121955963553e-02  -1.0704670384691108e-01  -1.4846651258842053e-01  -1.8535715894598781e-01  -2.1599405116355819e-01  -2.3938581871410394e-01  -2.5532412595692366e-01  -2.6427193233326679e-01  -2.6714951787932306e-01  -2.6509385937401869e-01  -2.5925164041580850e-01  -2.5063616779196674e-01  -2.4005085866345918e-01  -2.2806534512375573e-01  -2.1502486048141617e-01  -2.0107548614969761e-01  -1.8619276274431867e-01  -1.7020623757846215e-01  -1.5281644317099932e-01  -1.3360334474021743e-01  -1.1202672212063060e-01  -8.7419647412787377e-02  -5.8976495202684422e-02  -2.5736913063997308e-02  1.3433221545727665e-02  5.9863618998659038e-02  1.1509916779124182e-01  1.8101244723140966e-01  -1.7743552302190438e-01  -1.1155846007136642e-01  -5.6343045322591490e-02  -9.9975043825516700e-03  2.8954377153576565e-02  6.1755959031832432e-02  8.9432405934440365e-02  1.1280725088594851e-01  1.3251472289071825e-01  1.4900787338213164e-01  1.6256223211988113e-01  1.7327491122798189e-01  1.8105995487092785e-01  1.8564225396043926e-01  1.8655461507598631e-01  1.8314565898359086e-01  1.7460986751057303e-01  1.6005429859344117e-01  1.3861702934593487e-01  1.0964662465670334e-01  7.2935648915223347e-02  2.8972577491351431e-02  -2.0858909143310900e-02  -7.4228731200446804e-02  -1.2803996813524718e-01  -1.7885445311687467e-01  -2.2347411382614216e-01  -2.5950036717871539e-01  -2.8568656153885780e-01  -3.0198584074142548e-01  -3.0932446862902457e-01  -3.0922418582026240e-01  -3.0341413602872430e-01  -2.9352946090781445e-01  -2.8093128827557401e-01  -2.6663546872501054e-01  -2.5131586210945428e-01  -2.3534673671648929e-01  -2.1885754744495314e-01  -2.0178396638839582e-01  -1.8390756829753876e-01  -1.6488204456795497e-01  -1.4424671590604249e-01  -1.2142931768051354e-01  -9.5740317566809091e-02  -6.6360901444503309e-02  -3.2326441598691913e-02  7.4933700526959345e-03  5.4417182721039896e-02  1.0997470977610087e-01  1.7601618342636202e-01  -1.7156490721412590e-01  -1.0555203886928184e-01  -4.9979943888160815e-02  -3.0787031113001400e-03  3.6617583709372750e-02  7.0346164101067976e-02  9.9131769063652106e-02  1.2380220192794060e-01  1.4499907288981514e-01  1.6318309810667500e-01  1.7863317189553396e-01  1.9143841793735769e-01  2.0148318262898696e-01  2.0842652188482558e-01  2.1168051082183661e-01  2.1039614607212850e-01  2.0347195652853509e-01  1.8960804251870764e-01  1.6743446690785979e-01  1.3574174095266642e-01  9.3823034311679682e-02  4.1893194127573030e-02  -1.8520253531457101e-02  -8.4387273639576418e-02  -1.5136873518164323e-01  -2.1446844032296489e-01  -2.6900681165616785e-01  -3.1157936716150125e-01  -3.4063548996127946e-01  -3.5649407113145953e-01  -3.6088431116103170e-01  -3.5627352612874241e-01  -3.4524496265111215e-01  -3.3007401358495103e-01  -3.1252561382711552e-01  -2.9382007560952766e-01  -2.7469482132158307e-01  -2.5550239602706021e-01  -2.3630776598341233e-01  -2.1696740995074509e-01  -1.9718527554549556e-01  -1.7654710772439533e-01  -1.5453708385066092e-01  -1.3054100390503323e-01  -1.0383973472609492e-01  -7.3595858475902040e-02  -3.8835742750516163e-02  1.5716417087354008e-03  4.8938378581034857e-02  1.0478313515785755e-01  1.7093811348020560e-01  -1.6564223388572055e-01  -9.9498185706748857e-02  -4.3578819856973351e-02  3.8685894278343656e-03  4.4305607242295826e-02  7.8971019774654941e-02  1.0889856001626816e-01  1.3493195071355049e-01  1.5773468340535715e-01  1.7779326349394581e-01  1.9541241135988280e-01  2.1070033994955012e-01  2.2354258203661095e-01  2.3356408658487218e-01  2.4008210158011919e-01  2.4205779687506682e-01  2.3806393794834982e-01  2.2629992001669563e-01  2.0470238695138226e-01  1.7121190548169604e-01  1.2424639679622848e-01  6.3373908776998888e-02  -9.9485676784667795e-03  -9.1869082692936185e-02  -1.7625932821637769e-01  -2.5570296523913044e-01  -3.2316903445402712e-01  -3.7371481280079089e-01  -4.0546555074257112e-01  -4.1951022883835604e-01  -4.1896547692856606e-01  -4.0777114156897865e-01  -3.8970934614337777e-01  -3.6784804231798923e-01  -3.4436845717428466e-01  -3.2063280786168674e-01  -2.9735441584872224e-01  -2.7478033611045688e-01  -2.5284351670740995e-01  -2.3127223830986227e-01  -2.0965989042762778e-01  -1.8750347887488822e-01  -1.6421957329894180e-01  -1.3914482226946895e-01  -1.1152627263560887e-01  -8.0505154571698198e-02  -4.50966028