<?xml version="1.0"?>
<VTKFile type="UnstructuredGrid"  version="0.1"  >
<UnstructuredGrid>
<Piece  NumberOfPoints="5101" NumberOfCells="10000">
<Points>
<DataArray  type="Float64"  NumberOfComponents="3"  format="ascii">0 0 0  0.2 0 0  0.4 0 0  0.6 0 0  0.8 0 0  1 0 0  1.2 0 0  1.4 0 0  1.6 0 0  1.8 0 0  2 0 0  2.2 0 0  2.4 0 0  2.6 0 0  2.8 0 0  3 0 0  3.2 0 0  3.4 0 0  3.6 0 0  3.8 0 0  4 0 0  4.2 0 0  4.4 0 0  4.6 0 0  4.8 0 0  5 0 0  5.2 0 0  5.4 0 0  5.6 0 0  5.8 0 0  6 0 0  6.2 0 0  6.4 0 0  6.6 0 0  6.8 0 0  7 0 0  7.2 0 0  7.4 0 0  7.6 0 0  7.8 0 0  8 0 0  8.199999999999999 0 0  8.4 0 0  8.6 0 0  8.800000000000001 0 0  9 0 0  9.199999999999999 0 0  9.4 0 0  9.6 0 0  9.800000000000001 0 0  10 0 0  0 0.2 0  0.2 0.2 0  0.4 0.2 0  0.6 0.2 0  0.8 0.2 0  1 0.2 0  1.2 0.2 0  1.4 0.2 0  1.6 0.2 0  1.8 0.2 0  2 0.2 0  2.2 0.2 0  2.4 0.2 0  2.6 0.2 0  2.8 0.2 0  3 0.2 0  3.2 0.2 0  3.4 0.2 0  3.6 0.2 0  3.8 0.2 0  4 0.2 0  4.2 0.2 0  4.4 0.2 0  4.6 0.2 0  4.8 0.2 0  5 0.2 0  5.2 0.2 0  5.4 0.2 0  5.6 0.2 0  5.8 0.2 0  6 0.2 0  6.2 0.2 0  6.4 0.2 0  6.6 0.2 0  6.8 0.2 0  7 0.2 0  7.2 0.2 0  7.4 0.2 0  7.6 0.2 0  7.8 0.2 0  8 0.2 0  8.199999999999999 0.2 0  8.4 0.2 0  8.6 0.2 0  8.800000000000001 0.2 0  9 0.2 0  9.199999999999999 0.2 0  9.4 0.2 0  9.6 0.2 0  9.800000000000001 0.2 0  10 0.2 0  0 0.4 0  0.2 0.4 0  0.4 0.4 0  0.6 0.4 0  0.8 0.4 0  1 0.4 0  1.2 0.4 0  1.4 0.4 0  1.6 0.4 0  1.8 0.4 0  2 0.4 0  2.2 0.4 0  2.4 0.4 0  2.6 0.4 0  2.8 0.4 0  3 0.4 0  3.2 0.4 0  3.4 0.4 0  3.6 0.4 0  3.8 0.4 0  4 0.4 0  4.2 0.4 0  4.4 0.4 0  4.6 0.4 0  4.8 0.4 0  5 0.4 0  5.2 0.4 0  5.4 0.4 0  5.6 0.4 0  5.8 0.4 0  6 0.4 0  6.2 0.4 0  6.4 0.4 0  6.6 0.4 0  6.8 0.4 0  7 0.4 0  7.2 0.4 0  7.4 0.4 0  7.6 0.4 0  7.8 0.4 0  8 0.4 0  8.199999999999999 0.4 0  8.4 0.4 0  8.6 0.4 0  8.800000000000001 0.4 0  9 0.4 0  9.199999999999999 0.4 0  9.4 0.4 0  9.6 0.4 0  9.800000000000001 0.4 0  10 0.4 0  0 0.6 0  0.2 0.6 0  0.4 0.6 0  0.6 0.6 0  0.8 0.6 0  1 0.6 0  1.2 0.6 0  1.4 0.6 0  1.6 0.6 0  1.8 0.6 0  2 0.6 0  2.2 0.6 0  2.4 0.6 0  2.6 0.6 0  2.8 0.6 0  3 0.6 0  3.2 0.6 0  3.4 0.6 0  3.6 0.6 0  3.8 0.6 0  4 0.6 0  4.2 0.6 0  4.4 0.6 0  4.6 0.6 0  4.8 0.6 0  5 0.6 0  5.2 0.6 0  5.4 0.6 0  5.6 0.6 0  5.8 0.6 0  6 0.6 0  6.2 0.6 0  6.4 0.6 0  6.6 0.6 0  6.8 0.6 0  7 0.6 0  7.2 0.6 0  7.4 0.6 0  7.6 0.6 0  7.8 0.6 0  8 0.6 0  8.199999999999999 0.6 0  8.4 0.6 0  8.6 0.6 0  8.800000000000001 0.6 0  9 0.6 0  9.199999999999999 0.6 0  9.4 0.6 0  9.6 0.6 0  9.800000000000001 0.6 0  10 0.6 0  0 0.8 0  0.2 0.8 0  0.4 0.8 0  0.6 0.8 0  0.8 0.8 0  1 0.8 0  1.2 0.8 0  1.4 0.8 0  1.6 0.8 0  1.8 0.8 0  2 0.8 0  2.2 0.8 0  2.4 0.8 0  2.6 0.8 0  2.8 0.8 0  3 0.8 0  3.2 0.8 0  3.4 0.8 0  3.6 0.8 0  3.8 0.8 0  4 0.8 0  4.2 0.8 0  4.4 0.8 0  4.6 0.8 0  4.8 0.8 0  5 0.8 0  5.2 0.8 0  5.4 0.8 0  5.6 0.8 0  5.8 0.8 0  6 0.8 0  6.2 0.8 0  6.4 0.8 0  6.6 0.8 0  6.8 0.8 0  7 0.8 0  7.2 0.8 0  7.4 0.8 0  7.6 0.8 0  7.8 0.8 0  8 0.8 0  8.199999999999999 0.8 0  8.4 0.8 0  8.6 0.8 0  8.800000000000001 0.8 0  9 0.8 0  9.199999999999999 0.8 0  9.4 0.8 0  9.6 0.8 0  9.800000000000001 0.8 0  10 0.8 0  0 1 0  0.2 1 0  0.4 1 0  0.6 1 0  0.8 1 0  1 1 0  1.2 1 0  1.4 1 0  1.6 1 0  1.8 1 0  2 1 0  2.2 1 0  2.4 1 0  2.6 1 0  2.8 1 0  3 1 0  3.2 1 0  3.4 1 0  3.6 1 0  3.8 1 0  4 1 0  4.2 1 0  4.4 1 0  4.6 1 0  4.8 1 0  5 1 0  5.2 1 0  5.4 1 0  5.6 1 0  5.8 1 0  6 1 0  6.2 1 0  6.4 1 0  6.6 1 0  6.8 1 0  7 1 0  7.2 1 0  7.4 1 0  7.6 1 0  7.8 1 0  8 1 0  8.199999999999999 1 0  8.4 1 0  8.6 1 0  8.800000000000001 1 0  9 1 0  9.199999999999999 1 0  9.4 1 0  9.6 1 0  9.800000000000001 1 0  10 1 0  0 1.2 0  0.2 1.2 0  0.4 1.2 0  0.6 1.2 0  0.8 1.2 0  1 1.2 0  1.2 1.2 0  1.4 1.2 0  1.6 1.2 0  1.8 1.2 0  2 1.2 0  2.2 1.2 0  2.4 1.2 0  2.6 1.2 0  2.8 1.2 0  3 1.2 0  3.2 1.2 0  3.4 1.2 0  3.6 1.2 0  3.8 1.2 0  4 1.2 0  4.2 1.2 0  4.4 1.2 0  4.6 1.2 0  4.8 1.2 0  5 1.2 0  5.2 1.2 0  5.4 1.2 0  5.6 1.2 0  5.8 1.2 0  6 1.2 0  6.2 1.2 0  6.4 1.2 0  6.6 1.2 0  6.8 1.2 0  7 1.2 0  7.2 1.2 0  7.4 1.2 0  7.6 1.2 0  7.8 1.2 0  8 1.2 0  8.199999999999999 1.2 0  8.4 1.2 0  8.6 1.2 0  8.800000000000001 1.2 0  9 1.2 0  9.199999999999999 1.2 0  9.4 1.2 0  9.6 1.2 0  9.800000000000001 1.2 0  10 1.2 0  0 1.4 0  0.2 1.4 0  0.4 1.4 0  0.6 1.4 0  0.8 1.4 0  1 1.4 0  1.2 1.4 0  1.4 1.4 0  1.6 1.4 0  1.8 1.4 0  2 1.4 0  2.2 1.4 0  2.4 1.4 0  2.6 1.4 0  2.8 1.4 0  3 1.4 0  3.2 1.4 0  3.4 1.4 0  3.6 1.4 0  3.8 1.4 0  4 1.4 0  4.2 1.4 0  4.4 1.4 0  4.6 1.4 0  4.8 1.4 0  5 1.4 0  5.2 1.4 0  5.4 1.4 0  5.6 1.4 0  5.8 1.4 0  6 1.4 0  6.2 1.4 0  6.4 1.4 0  6.6 1.4 0  6.8 1.4 0  7 1.4 0  7.2 1.4 0  7.4 1.4 0  7.6 1.4 0  7.8 1.4 0  8 1.4 0  8.199999999999999 1.4 0  8.4 1.4 0  8.6 1.4 0  8.800000000000001 1.4 0  9 1.4 0  9.199999999999999 1.4 0  9.4 1.4 0  9.6 1.4 0  9.800000000000001 1.4 0  10 1.4 0  0 1.6 0  0.2 1.6 0  0.4 1.6 0  0.6 1.6 0  0.8 1.6 0  1 1.6 0  1.2 1.6 0  1.4 1.6 0  1.6 1.6 0  1.8 1.6 0  2 1.6 0  2.2 1.6 0  2.4 1.6 0  2.6 1.6 0  2.8 1.6 0  3 1.6 0  3.2 1.6 0  3.4 1.6 0  3.6 1.6 0  3.8 1.6 0  4 1.6 0  4.2 1.6 0  4.4 1.6 0  4.6 1.6 0  4.8 1.6 0  5 1.6 0  5.2 1.6 0  5.4 1.6 0  5.6 1.6 0  5.8 1.6 0  6 1.6 0  6.2 1.6 0  6.4 1.6 0  6.6 1.6 0  6.8 1.6 0  7 1.6 0  7.2 1.6 0  7.4 1.6 0  7.6 1.6 0  7.8 1.6 0  8 1.6 0  8.199999999999999 1.6 0  8.4 1.6 0  8.6 1.6 0  8.800000000000001 1.6 0  9 1.6 0  9.199999999999999 1.6 0  9.4 1.6 0  9.6 1.6 0  9.800000000000001 1.6 0  10 1.6 0  0 1.8 0  0.2 1.8 0  0.4 1.8 0  0.6 1.8 0  0.8 1.8 0  1 1.8 0  1.2 1.8 0  1.4 1.8 0  1.6 1.8 0  1.8 1.8 0  2 1.8 0  2.2 1.8 0  2.4 1.8 0  2.6 1.8 0  2.8 1.8 0  3 1.8 0  3.2 1.8 0  3.4 1.8 0  3.6 1.8 0  3.8 1.8 0  4 1.8 0  4.2 1.8 0  4.4 1.8 0  4.6 1.8 0  4.8 1.8 0  5 1.8 0  5.2 1.8 0  5.4 1.8 0  5.6 1.8 0  5.8 1.8 0  6 1.8 0  6.2 1.8 0  6.4 1.8 0  6.6 1.8 0  6.8 1.8 0  7 1.8 0  7.2 1.8 0  7.4 1.8 0  7.6 1.8 0  7.8 1.8 0  8 1.8 0  8.199999999999999 1.8 0  8.4 1.8 0  8.6 1.8 0  8.800000000000001 1.8 0  9 1.8 0  9.199999999999999 1.8 0  9.4 1.8 0  9.6 1.8 0  9.800000000000001 1.8 0  10 1.8 0  0 2 0  0.2 2 0  0.4 2 0  0.6 2 0  0.8 2 0  1 2 0  1.2 2 0  1.4 2 0  1.6 2 0  1.8 2 0  2 2 0  2.2 2 0  2.4 2 0  2.6 2 0  2.8 2 0  3 2 0  3.2 2 0  3.4 2 0  3.6 2 0  3.8 2 0  4 2 0  4.2 2 0  4.4 2 0  4.6 2 0  4.8 2 0  5 2 0  5.2 2 0  5.4 2 0  5.6 2 0  5.8 2 0  6 2 0  6.2 2 0  6.4 2 0  6.6 2 0  6.8 2 0  7 2 0  7.2 2 0  7.4 2 0  7.6 2 0  7.8 2 0  8 2 0  8.199999999999999 2 0  8.4 2 0  8.6 2 0  8.800000000000001 2 0  9 2 0  9.199999999999999 2 0  9.4 2 0  9.6 2 0  9.800000000000001 2 0  10 2 0  0 2.2 0  0.2 2.2 0  0.4 2.2 0  0.6 2.2 0  0.8 2.2 0  1 2.2 0  1.2 2.2 0  1.4 2.2 0  1.6 2.2 0  1.8 2.2 0  2 2.2 0  2.2 2.2 0  2.4 2.2 0  2.6 2.2 0  2.8 2.2 0  3 2.2 0  3.2 2.2 0  3.4 2.2 0  3.6 2.2 0  3.8 2.2 0  4 2.2 0  4.2 2.2 0  4.4 2.2 0  4.6 2.2 0  4.8 2.2 0  5 2.2 0  5.2 2.2 0  5.4 2.2 0  5.6 2.2 0  5.8 2.2 0  6 2.2 0  6.2 2.2 0  6.4 2.2 0  6.6 2.2 0  6.8 2.2 0  7 2.2 0  7.2 2.2 0  7.4 2.2 0  7.6 2.2 0  7.8 2.2 0  8 2.2 0  8.199999999999999 2.2 0  8.4 2.2 0  8.6 2.2 0  8.800000000000001 2.2 0  9 2.2 0  9.199999999999999 2.2 0  9.4 2.2 0  9.6 2.2 0  9.800000000000001 2.2 0  10 2.2 0  0 2.4 0  0.2 2.4 0  0.4 2.4 0  0.6 2.4 0  0.8 2.4 0  1 2.4 0  1.2 2.4 0  1.4 2.4 0  1.6 2.4 0  1.8 2.4 0  2 2.4 0  2.2 2.4 0  2.4 2.4 0  2.6 2.4 0  2.8 2.4 0  3 2.4 0  3.2 2.4 0  3.4 2.4 0  3.6 2.4 0  3.8 2.4 0  4 2.4 0  4.2 2.4 0  4.4 2.4 0  4.6 2.4 0  4.8 2.4 0  5 2.4 0  5.2 2.4 0  5.4 2.4 0  5.6 2.4 0  5.8 2.4 0  6 2.4 0  6.2 2.4 0  6.4 2.4 0  6.6 2.4 0  6.8 2.4 0  7 2.4 0  7.2 2.4 0  7.4 2.4 0  7.6 2.4 0  7.8 2.4 0  8 2.4 0  8.199999999999999 2.4 0  8.4 2.4 0  8.6 2.4 0  8.800000000000001 2.4 0  9 2.4 0  9.199999999999999 2.4 0  9.4 2.4 0  9.6 2.4 0  9.800000000000001 2.4 0  10 2.4 0  0 2.6 0  0.2 2.6 0  0.4 2.6 0  0.6 2.6 0  0.8 2.6 0  1 2.6 0  1.2 2.6 0  1.4 2.6 0  1.6 2.6 0  1.8 2.6 0  2 2.6 0  2.2 2.6 0  2.4 2.6 0  2.6 2.6 0  2.8 2.6 0  3 2.6 0  3.2 2.6 0  3.4 2.6 0  3.6 2.6 0  3.8 2.6 0  4 2.6 0  4.2 2.6 0  4.4 2.6 0  4.6 2.6 0  4.8 2.6 0  5 2.6 0  5.2 2.6 0  5.4 2.6 0  5.6 2.6 0  5.8 2.6 0  6 2.6 0  6.2 2.6 0  6.4 2.6 0  6.6 2.6 0  6.8 2.6 0  7 2.6 0  7.2 2.6 0  7.4 2.6 0  7.6 2.6 0  7.8 2.6 0  8 2.6 0  8.199999999999999 2.6 0  8.4 2.6 0  8.6 2.6 0  8.800000000000001 2.6 0  9 2.6 0  9.199999999999999 2.6 0  9.4 2.6 0  9.6 2.6 0  9.800000000000001 2.6 0  10 2.6 0  0 2.8 0  0.2 2.8 0  0.4 2.8 0  0.6 2.8 0  0.8 2.8 0  1 2.8 0  1.2 2.8 0  1.4 2.8 0  1.6 2.8 0  1.8 2.8 0  2 2.8 0  2.2 2.8 0  2.4 2.8 0  2.6 2.8 0  2.8 2.8 0  3 2.8 0  3.2 2.8 0  3.4 2.8 0  3.6 2.8 0  3.8 2.8 0  4 2.8 0  4.2 2.8 0  4.4 2.8 0  4.6 2.8 0  4.8 2.8 0  5 2.8 0  5.2 2.8 0  5.4 2.8 0  5.6 2.8 0  5.8 2.8 0  6 2.8 0  6.2 2.8 0  6.4 2.8 0  6.6 2.8 0  6.8 2.8 0  7 2.8 0  7.2 2.8 0  7.4 2.8 0  7.6 2.8 0  7.8 2.8 0  8 2.8 0  8.199999999999999 2.8 0  8.4 2.8 0  8.6 2.8 0  8.800000000000001 2.8 0  9 2.8 0  9.199999999999999 2.8 0  9.4 2.8 0  9.6 2.8 0  9.800000000000001 2.8 0  10 2.8 0  0 3 0  0.2 3 0  0.4 3 0  0.6 3 0  0.8 3 0  1 3 0  1.2 3 0  1.4 3 0  1.6 3 0  1.8 3 0  2 3 0  2.2 3 0  2.4 3 0  2.6 3 0  2.8 3 0  3 3 0  3.2 3 0  3.4 3 0  3.6 3 0  3.8 3 0  4 3 0  4.2 3 0  4.4 3 0  4.6 3 0  4.8 3 0  5 3 0  5.2 3 0  5.4 3 0  5.6 3 0  5.8 3 0  6 3 0  6.2 3 0  6.4 3 0  6.6 3 0  6.8 3 0  7 3 0  7.2 3 0  7.4 3 0  7.6 3 0  7.8 3 0  8 3 0  8.199999999999999 3 0  8.4 3 0  8.6 3 0  8.800000000000001 3 0  9 3 0  9.199999999999999 3 0  9.4 3 0  9.6 3 0  9.800000000000001 3 0  10 3 0  0 3.2 0  0.2 3.2 0  0.4 3.2 0  0.6 3.2 0  0.8 3.2 0  1 3.2 0  1.2 3.2 0  1.4 3.2 0  1.6 3.2 0  1.8 3.2 0  2 3.2 0  2.2 3.2 0  2.4 3.2 0  2.6 3.2 0  2.8 3.2 0  3 3.2 0  3.2 3.2 0  3.4 3.2 0  3.6 3.2 0  3.8 3.2 0  4 3.2 0  4.2 3.2 0  4.4 3.2 0  4.6 3.2 0  4.8 3.2 0  5 3.2 0  5.2 3.2 0  5.4 3.2 0  5.6 3.2 0  5.8 3.2 0  6 3.2 0  6.2 3.2 0  6.4 3.2 0  6.6 3.2 0  6.8 3.2 0  7 3.2 0  7.2 3.2 0  7.4 3.2 0  7.6 3.2 0  7.8 3.2 0  8 3.2 0  8.199999999999999 3.2 0  8.4 3.2 0  8.6 3.2 0  8.800000000000001 3.2 0  9 3.2 0  9.199999999999999 3.2 0  9.4 3.2 0  9.6 3.2 0  9.800000000000001 3.2 0  10 3.2 0  0 3.4 0  0.2 3.4 0  0.4 3.4 0  0.6 3.4 0  0.8 3.4 0  1 
[...]
<PointData  Scalars="f_8"> 
<DataArray  type="Float64"  Name="f_8"  format="ascii">-4.2499355389580898e-02  -2.0656241458519492e-02  -1.0807479853728281e-02  -7.4938033273107196e-03  -4.6266866074521932e-03  -2.5019878987629805e-03  -6.7455948996843510e-04  9.8014834039224273e-04  2.5663241059943657e-03  4.1637269687268587e-03  5.8166689087683788e-03  7.4672132247904253e-03  9.1055325851631171e-03  1.1987788425935120e-02  2.7928710638049463e-02  5.0784690028239633e-02  7.0007724816339753e-02  1.0300915915945176e-02  6.6064212640767834e-03  5.7209306504923526e-03  4.7765577146068761e-03  4.1789790248434912e-03  3.7852630004470891e-03  3.5202461506689967e-03  3.3208568084368301e-03  3.1324185966247696e-03  2.9065329900290022e-03  2.6006795600760531e-03  2.1756291036795698e-03  1.5877829826616554e-03  7.7863886064349365e-04  -3.8538165908264720e-04  -1.5292402980872093e-03  -4.9931893563591109e-03  -6.4601690185893942e-02  -4.7823468750826971e-02  -2.5365573082942728e-02  -9.3790634455694580e-03  -6.7378478541541831e-03  -5.3646104846012668e-03  -3.9619628392124732e-03  -2.5391769801968206e-03  -1.1568565238308007e-03  2.2919280609619806e-04  1.6993332994721920e-03  3.3580036025186821e-03  5.3297857026748299e-03  8.0589433387059910e-03  1.1250438652915631e-02  2.0995193107128430e-02  4.2640593739474167e-02  -3.4291489665760999e-01  -2.1695622115107174e-01  -1.4600435210727358e-01  -1.0234094704586955e-01  -7.2537450349501292e-02  -5.0671560457979103e-02  -3.3722134187864718e-02  -1.9903621678923802e-02  -8.0549844842783668e-03  2.6437670678262867e-03  1.2794011800597735e-02  2.2839879318040775e-02  3.3182758879844988e-02  4.2962146079020033e-02  4.7939316888989766e-02  4.4443183341520975e-02  2.7885833240293645e-02  3.1918119222123847e-03  3.9540965859623349e-03  5.2154363083969134e-03  4.8691315938557550e-03  4.2897163641973770e-03  3.5738439404041232e-03  2.7415575135716539e-03  1.8050520560456643e-03  7.9893805361271639e-04  -2.2488218153191266e-04  -1.2151802365195732e-03  -2.1384174367384428e-03  -2.9812823652752094e-03  -3.7170847187545934e-03  -4.2338477063515916e-03  -3.1529212522184596e-03  -2.4168569781520413e-03  -2.7483921224056896e-02  -4.6643100099793854e-02  -5.1313244882883698e-02  -4.6431503351451707e-02  -3.6427052185584334e-02  -2.5786231304483959e-02  -1.5469639994166994e-02  -5.1009901786322103e-03  5.7561795029542400e-03  1.7706496747148144e-02  3.1579021958646349e-02  4.8545777242960546e-02  7.0403075716829078e-02  1.0018144949436517e-01  1.4381107120656206e-01  2.1471854756740769e-01  3.4068809622768687e-01  -5.1552297689348570e-01  -3.5978921764064148e-01  -2.5734375291678707e-01  -1.8577075191259207e-01  -1.3430417930385594e-01  -9.5427991299578352e-02  -6.4774106609299748e-02  -3.9448481863454038e-02  -1.7439111424472718e-02  2.7522076148045749e-03  2.2276691827847628e-02  4.1936859575287276e-02  6.1942884215357673e-02  8.1455206702649538e-02  9.5344555084057092e-02  8.4694878038540408e-02  4.2523341946792276e-02  1.7578931434773560e-02  9.0244975090508894e-03  7.9368302679872667e-03  6.2417604999340740e-03  4.7526268754417584e-03  3.2880639187075279e-03  1.7431390282784639e-03  8.1115542573015174e-05  -1.6659169677000990e-03  -3.4245301493825652e-03  -5.1226863997320855e-03  -6.7314667527016824e-03  -8.2890870662933550e-03  -9.8938898105155916e-03  -1.1705260084915086e-02  -1.2877880261083129e-02  -2.1253009510157250e-02  -4.7507739933645349e-02  -9.2815901040748938e-02  -1.0518863007668632e-01  -9.1036306823284549e-02  -7.0726875937520139e-02  -4.9861664655726376e-02  -2.9419957035772531e-02  -9.2454536383912676e-03  1.1452973469554944e-02  3.3837184929057698e-02  5.9426336667170426e-02  9.0256701891676130e-02  1.2924567071636284e-01  1.8078144723165882e-01  2.5239490132123421e-01  3.5486388155892895e-01  5.1066743707040518e-01  -6.3806065107811161e-01  -4.7445449418836128e-01  -3.5275520176564229e-01  -2.6248135899708780e-01  -1.9414354997562955e-01  -1.4104392638756907e-01  -9.8369160782809967e-02  -6.2687924037390930e-02  -3.1445228218007951e-02  -2.6582902333010675e-03  2.5230426354427547e-02  5.3317029941064124e-02  8.1885434913227265e-02  1.0975539458428468e-01  1.3140214936658501e-01  1.2225204764437922e-01  6.3319117646325321e-02  2.6569363808651526e-02  1.5586819691585138e-02  1.0680632833493811e-02  6.9666286575333540e-03  4.2217435234533831e-03  1.8761534630439833e-03  -3.8495198270208742e-04  -2.6953442085502206e-03  -5.0637933573799299e-03  -7.4315790082673892e-03  -9.7422383559898663e-03  -1.2011309463385486e-02  -1.4381728870494869e-02  -1.7172879302593699e-02  -2.0943741116823327e-02  -2.5875987278378317e-02  -3.7120637141522937e-02  -7.5127506694653332e-02  -1.3737101058285647e-01  -1.4811948083723439e-01  -1.2560216070257074e-01  -9.6233547470507816e-02  -6.6175635350842879e-02  -3.6782586765180994e-02  -7.8262015328514033e-03  2.1788505009221221e-02  5.3644875439424596e-02  8.9763432618146510e-02  1.3273982567794168e-01  1.8604351862655968e-01  2.5451970455808737e-01  3.4488931622031810e-01  4.6665431965608717e-01  6.3038340756900502e-01  -7.3461885414229533e-01  -5.6582270525029088e-01  -4.3401053509189225e-01  -3.3114543409060138e-01  -2.5044027153633924e-01  -1.8599422382687633e-01  -1.3320668250430875e-01  -8.8496306801568891e-02  -4.9042616647944681e-02  -1.2568687593295658e-02  2.2760386562815815e-02  5.8249482973059104e-02  9.4274647070740653e-02  1.2965196951983374e-01  1.5832011982029731e-01  1.5384336480997421e-01  9.5671263315097371e-02  4.1313951642074014e-02  2.2004963256948198e-02  1.2088544897786883e-02  6.2764995811423648e-03  2.1323751190762438e-03  -1.1345242947912910e-03  -4.0490600546802718e-03  -6.8684975564613738e-03  -9.6743917209846375e-03  -1.2457648425284405e-02  -1.5213585897619814e-02  -1.8038838454627320e-02  -2.1216559791769344e-02  -2.5305348005225697e-02  -3.1137009000444825e-02  -4.1031069755101658e-02  -6.0966153863758685e-02  -1.1627189255331963e-01  -1.7686548451766745e-01  -1.8221469020934566e-01  -1.5184260514121262e-01  -1.1416193797773687e-01  -7.5986723857445662e-02  -3.8676877607243761e-02  -1.8959945867004836e-03  3.5680418587142118e-02  7.5935264886682827e-02  1.2120474647784182e-01  1.7436996883585767e-01  2.3906792498368620e-01  3.1994516814172480e-01  4.2293420544804300e-01  5.5483712317033740e-01  7.2381251687662118e-01  -8.1631634163295774e-01  -6.4475439301642479e-01  -5.0621654001298177e-01  -3.9474637429354442e-01  -3.0478616952960591e-01  -2.3130406351974789e-01  -1.7005202848503606e-01  -1.1752949967463200e-01  -7.0852188497190452e-02  -2.7615868376897244e-02  1.4161903797782451e-02  5.5921712403465086e-02  9.8140461438023172e-02  1.3982337273280815e-01  1.7541805025282853e-01  1.8004787013325657e-01  1.3156811671115928e-01  6.6207664532757518e-02  2.4164402031683217e-02  1.1450181140925449e-02  3.8085906653747173e-03  -1.8099135595764902e-03  -5.9981774099126814e-03  -9.4735983850031767e-03  -1.2637848526058306e-02  -1.5670089207418834e-02  -1.8640881063704446e-02  -2.1630507403824519e-02  -2.4851349484659901e-02  -2.8756894450083750e-02  -3.4142001161161034e-02  -4.1668612488944691e-02  -5.4933325156953504e-02  -9.7760031513958498e-02  -1.6217402673627188e-01  -2.1152068856914408e-01  -2.0649654260122099e-01  -1.6820716953244685e-01  -1.2341651169847706e-01  -7.8423986120596728e-02  -3.4382692973331297e-02  9.1668139125288053e-03  5.3710241146447679e-02  1.0130400935119130e-01  1.5443654761317566e-01  2.1607589361882504e-01  2.8979879602588565e-01  3.7991585411260625e-01  4.9150167598398348e-01  6.3013239340783955e-01  8.0193065654675577e-01  -8.9060484317420396e-01  -7.1715652162555144e-01  -5.7405411869627931e-01  -4.5629611010560028e-01  -3.5919611785379479e-01  -2.7835323694902198e-01  -2.0990076768250515e-01  -1.5053108786514655e-01  -9.7436613538609773e-02  -4.8226455329995532e-02  -8.9797886307551656e-04  4.6036593754841607e-02  9.3139316530612984e-02  1.3963254524180771e-01  1.8137269884172369e-01  1.9834666431014675e-01  1.6503266155965765e-01  1.0289070847662292e-01  4.4995781720790384e-02  8.9494321425120232e-03  -3.2589571275850384e-04  -7.4384064925895827e-03  -1.2636771708067767e-02  -1.6676878515338694e-02  -2.0119645977629302e-02  -2.3257672367817998e-02  -2.6262973216159141e-02  -2.9329088673858143e-02  -3.2816196160019594e-02  -3.7348215398486748e-02  -4.3770775213649013e-02  -5.3184893875255990e-02  -9.3086132686551359e-02  -1.4743475257868685e-01  -2.0632829298537050e-01  -2.3850418598010337e-01  -2.1938332234320276e-01  -1.7386767104654785e-01  -1.2353658466751831e-01  -7.3129057952601523e-02  -2.3548830273007002e-02  2.5772919735094782e-02  7.6395801522961992e-02  1.3042403372319367e-01  1.9035996177917763e-01  2.5912083120281959e-01  3.4011404764013242e-01  4.3728880091217653e-01  5.5510287984683127e-01  6.9826805652206270e-01  8.7200968696053549e-01  -9.6310296772354864e-01  -7.8833917584699342e-01  -6.4181262766610470e-01  -5.1914951613704241e-01  -4.1621115108091994e-01  -3.2907835492384163e-01  -2.5424164025473983e-01  -1.8864238661397442e-01  -1.2964581192294569e-01  -7.4988398789818042e-02  -2.2764575550900955e-02  2.8462870106314084e-02  7.9303960405896254e-02  1.2913693586607702e-01  1.7524231246103542e-01  2.0442874186260593e-01  1.9108152119180405e-01  1.3914999513641543e-01  7.9326402589916370e-02  2.6561126626414792e-02  -5.3438831272200303e-03  -1.4006949002028660e-02  -2.0458920511126789e-02  -2.5396759082126311e-02  -2.9384126923594048e-02  -3.2825876742485369e-02  -3.6007570800009735e-02  -3.9252089974967763e-02  -4.3047216662114571e-02  -4.8065746300719983e-02  -5.8363961566060572e-02  -9.5675956028664647e-02  -1.4254110649383264e-01  -1.9622186938744607e-01  -2.4323800953609775e-01  -2.5309100304020571e-01  -2.1973392642952677e-01  -1.6878660677350893e-01  -1.1448585592645322e-01  -5.9929404874502677e-02  -5.8196813589140054e-03  4.8489529488463523e-02  1.0453575032425293e-01  1.6435567779456761e-01  2.3035418597232643e-01  3.0530467288394597e-01  3.9239248719207592e-01  4.9523345998881629e-01  6.1782224089699778e-01  7.6433564117467134e-01  9.3944646372560325e-01  -1.0387286841851826e+00  -8.6296817716263508e-01  -7.1363167594086274e-01  -5.8679050020098622e-01  -4.7869104052352140e-01  -3.8579941366867332e-01  -3.0494055670986253e-01  -2.3333384233846746e-01  -1.6858091838475850e-01  -1.0863314179473933e-01  -5.1783996371005982e-02  3.2486383033769606e-03  5.7047760353482746e-02  1.0908191013205076e-01  1.5741155934257692e-01  1.9494459508160741e-01  2.0225163403736809e-01  1.6913430108820449e-01  1.1456287105442599e-01  6.1356946753318840e-02  1.5119141678344272e-02  -1.7210572729642479e-02  -2.7875757948877852e-02  -3.4850063177003919e-02  -4.0419436686849518e-02  -4.5109599632129446e-02  -4.9362851752040818e-02  -5.3734175240918600e-02  -5.9682773979887943e-02  -7.5217792361023217e-02  -1.0860001364078938e-01  -1.4758386591770140e-01  -1.9228393404661798e-01  -2.3852921045738515e-01  -2.6447128876182130e-01  -2.5115500309853944e-01  -2.0768807916057236e-01  -1.5363021029955481e-01  -9.6628414034723539e-02  -3.8844490769575753e-02  1.9155284966624653e-02  7.8022892091052981e-02  1.3917240827646349e-01  2.0447521078970471e-01  2.7615572880551847e-01  3.5678398335901124e-01  4.4929820084252842e-01  5.5700849448008627e-01  6.8354941280983195e-01  8.3273199222104322e-01  1.0088898055369282e+00  -1.1222717486800433e+00  -9.4569862507779756e-01  -7.9376362060569527e-01  -6.6296706560292162e-01  -5.4985029952265874e-01  -4.5122779236145572e-01  -3.6425022321129008e-01  -2.8642819833155220e-01  -2.1563392184193989e-01  -1.5009108418515460e-01  -8.8370153329175569e-02  -2.9436556705262008e-02  2.7169413305397894e-02  8.0980068753694054e-02  1.3035349061509083e-01  1.7160025135320711e-01  1.9408814384705667e-01  1.8404869037866198e-01  1.4476593691591297e-01  9.4715814561700876e-02  4.7224999945380583e-02  5.1095006231269271e-03  -2.7238015090569653e-02  -4.2820767602463609e-02  -5.2952662651852569e-02  -6.1490549767761117e-02  -6.9834601265298640e-02  -8.0897461778803831e-02  -1.0116005227136124e-01  -1.2980989351239355e-01  -1.6273843537657390e-01  -1.9920757693493385e-01  -2.3707285705535611e-01  -2.6452755961921670e-01  -2.6469745305323678e-01  -2.3416521817922756e-01  -1.8569022170065783e-01  -1.2988094965359298e-01  -7.0729511921511626e-02  -1.0015753306058070e-02  5.1799768627596270e-02  1.1528164655033367e-01  1.8163511628161727e-01  2.5249707342588740e-01  3.2986245890691190e-01  4.1607007610533725e-01  5.1380267864969176e-01  6.2607947097991845e-01  7.5622302015021714e-01  9.0777179205485747e-01  1.0848012591097207e+00  -1.2188556276484570e+00  -1.0414276034907406e+00  -8.8680595859766898e-01  -7.5181538671133985e-01  -6.3331820310652787e-01  -5.2849856053267708e-01  -4.3484102015918652e-01  -3.5014086477194795e-01  -2.7254142004530602e-01  -2.0056666623045383e-01  -1.3311687852930434e-01  -6.9470427782463900e-02  -9.3702630845316701e-03  4.6752052899056984e-02  9.7516470815453060e-02  1.4053539090955758e-01  1.7107314478707122e-01  1.8001777083506693e-01  1.6165966139730600e-01  1.2276322770067670e-01  7.6336691423753433e-02  3.1244256775989236e-02  -9.7069518832494876e-03  -4.3125409348734309e-02  -6.5892165692317095e-02  -8.4255253025408983e-02  -1.0369507939882031e-01  -1.2781899656101919e-01  -1.5559896795529907e-01  -1.8525543529231603e-01  -2.1628382743537386e-01  -2.4609577787220546e-01  -2.6753355863677902e-01  -2.7039582501699372e-01  -2.4927403950075405e-01  -2.0890355180370471e-01  -1.5740549400833290e-01  -9.9488817733374868e-02  -3.7712905405959403e-02  2.6488313911806165e-02  9.2744776885619482e-02  1.6146784955191140e-01  2.3360400774287821e-01  3.1052112192671411e-01  3.9397340729888680e-01  4.8607651310097771e-01  5.8926632092183351e-01  7.0626858334812437e-01  8.4008433993740417e-01  9.9401128405815398e-01  1.1718723524862915e+00  -1.3345032444656035e+00  -1.1552712536818606e+00  -9.9787829511459647e-01  -8.5798827852656190e-01  -7.3322935329466732e-01  -6.2121683557485718e-01  -5.1981850322406220e-01  -4.2709579917383589e-01  -3.4141874633514557e-01  -2.6160215587529273e-01  -1.8691535728380704e-01  -1.1700236063164988e-01  -5.1864213039570797e-02  8.0389411210855174e-03  6.1612066313278036e-02  1.0707149355416659e-01  1.4198345095524817e-01  1.6213501330650476e-01  1.6170585541958421e-01  1.3883310440707367e-01  9.9277367503442696e-02  5.2464504521924582e-02  5.4195775204147496e-03  -3.8908213498983470e-02  -7.8532245060094596e-02  -1.1340020235848820e-01  -1.4662533221081853e-01  -1.7914288578130219e-01  -2.1044601048843067e-01  -2.3988194565238596e-01  -2.6499433389828703e-01  -2.8068497044291230e-01  -2.8104524408881565e-01  -2.6290421292767374e-01  -2.2805791745707268e-01  -1.8107041021677037e-01  -1.2558038734573668e-01  -6.4006935476648874e-02  1.8482826919360166e-03  7.0950161851446508e-02  1.4298217866372162e-01  2.1817004829338477e-01  2.9717156537479472e-01  3.8106857316263748e-01  4.7140031106317121e-01  5.7011716208167307e-01  6.7944244091457418e-01  8.0178330044720791e-01  9.3976628499412485e-01  1.0961768969820676e+00  1.2755154113772416e+00  -1.4762126654273413e+00  -1.2973380267875385e+00  -1.1364411386154871e+00  -9.9005261568200087e-01  -8.5697463700920640e-01  -7.3542845567280590e-01  -6.2388026780845385e-01  -5.2081548885776152e-01  -4.2487126194027347e-01  -3.3508043185492414e-01  -2.5098605537544094e-01  -1.7257232914588880e-01  -1.0012731938397967e-01  -3.4220071877503616e-02  2.4217446253605234e-02  7.3817837387503679e-02  1.1286496885761309e-01  1.3924349145374837e-01  1.4967482900869741e-01  1.4046626871726761e-01  1.1110841750207874e-01  6.6373360266752224e-02  1.3722334078815533e-02  -4.0991395638431245e-02  -9.4661359548851604e-02  -1.4501498194103388e-01  -1.9047003951903752e-01  -2.3045526198456717e-01  -2.6423158825712434e-01  -2.8973689700752026e-01  -3.0344842674847233e-01  -3.0195807526684715e-01  -2.8406084779664736e-01  -2.5134145265665458e-01  -2.0675112050953606e-01  -1.5281317748706943e-01  -9.1371963699413264e-02  -2.4003145651458890e-02  4.8089025711833815e-02  1.2417502075302253e-01  2.0393883401604332e-01  2.8739944545515511e-01  3.7491919430186438e-01  4.6733224048886668e-01  5.6603859529786149e-01  6.7286322865258752e-01  7.8976875268751667e-01  9.1871843046314217e-01  1.0618655659105540e+00  1.2208618809183944e+00  1.4023782726625467e+00  -1.6439200137499470e+00  -1.4909044193037855e+00  -1.3220316752401422e+00  -1.1644932622336681e+00  -1.0179774286422294e+00  -8.8196131688622392e-01  -7.5550979229154291e-01  -6.3744391644623744e-01  -5.2686320564719680e-01  -4.2339694351264145e-01  -3.2679886160606070e-01  -2.3702801666136381e-01  -1.5445035776831137e-01  -7.9755172115037062e-02  -1.3875719195660578e-02  4.2002640439812354e-02  8.6443948796715242e-02  1.1782696243379309e-01  1.3418422425910972e-01  1.3284166752278284e-01  1.1142883366522215e-01  7.0480070714296364e-02  1.4587283405686310e-02  -4.9588068778650130e-02  -1.1585455885867577e-01  -1.7909384072978612e-01  -2.3516764060230605e-01  -2.8104195219933820e-01  -3.1414716735963100e-01  -3.3191428840341808e-01  -3.3253153906253996e-01  -3.1607141868446254e-01  -2.8453631134731155e-01  -2.4065581730537738e-01  -1.8669892101094979e-01  -1.2428500234963637e-01  -5.4718313179113416e-02  2.0921741350316093e-02  1.0182240162561143e-01  1.8742584965985062e-01  2.7740478584860201e-01  3.7170004094487658e-01  4.7063205501655686e-01  5.7492261340997997e-01  6.8568190232812110e-01  8.0441974047357379e-01  9.3271344510249821e-01  1.0718715237063563e+00  1.2231751512551594e+00  1.3874439880616547e+00  1.5577130346368178e+00  -1.7791270075151941e+00  -1.6983072748474808e+00  -1.5237837661480429e+00  -1.3549418415902139e+00  -1.1952377807159895e+00  -1.0468318281183593e+00  -9.0856393627733545e-01  -7.7720924100784272e-01  -6.5045210225022521e-01  -5.2934029363101343e-01  -4.1602596504200279e-01  -3.1130999247382685e-01  -2.1533986222878329e-01  -1.2867078141827509e-01  -5.2306112171707220e-02  1.2506404623114838e-02  6.4344366894512742e-02  1.0160810065749104e-01  1.2251193442921082e-01  1.2500598946377892e-01  1.0695642063520819e-01  6.7441320233605301e-02  8.6499697431034906e-03  -6.3630117372496534e-02  -1.4139943777500838e-01  -2.1634052721491737e-01  -2.8120970709419663e-01  -3.3046330676420504e-01  -3.6045083604603473e-01  -3.6960396387453009e-01  -3.5860688036619709e-01  -3.2997061946534550e-01  -2.8688163752582346e-01  -2.3210764699593292e-01  -1.6763870872131101e-01  -9.4866695366637777e-02  -1.4807165234263411e-02  7.1764074922360255e-02  1.6423316918360290e-01  2.6216625589793613e-01  3.6545322713770478e-01  4.7438240281744748e-01  5.8911029442193674e-01  7.0912124653860908e-01  8.3452150637048894e-01  9.6748617985332508e-01  1.1104959660507010e+00  1.2644130163037139e+00  1.4288373532975984e+00  1.6029116152029590e+00  1.7168173480113182e+00  -1.7524551312109231e+00  -1.7222957806233230e+00  -1.5707118157455444e+00  -1.4217423519932189e+00  -1.2769444600352529e+00  -1.1427611372002298e+00  -1.0203746629670625e+00  -9.0212783199567059e-01  -7.7900685318183271e-01  -6.4896142646098731e-01  -5.1892904129408979e-01  -3.9606396172493474e-01  -2.8318217528392253e-01  -1.8108461144160559e-01  -9.0822632144370238e-02  -1.3876255774066879e-02  4.8109286779358829e-02  9.3341896229611532e-02  1.1980596235455876e-01  1.2529984087917806e-01  1.0773834874145692e-01  6.6019304029027365e-02  1.5920481593741868e-03  -8.0163114792426562e-02  -1.7004082771219362e-01  -2.5686177132278415e-01  -3.3010304470661478e-01  -3.8198962967647110e-01  -4.0855315367204709e-01  -4.0964112493190197e-01  -3.8797204978703365e-01  -3.4759114400176155e-01  -2.9242176143080062e-01  -2.2548320827843985e-01  -1.4877838386107345e-01  -6.3528038003694387e-02  2.9492881855490257e-02  1.2967007941252681e-01  2.3647637117297654e-01  3.4970144580674661e-01  4.6951796706670806e-01  5.9512694649497111e-01  7.2275411156992397e-01  8.4800791850448265e-01  9.7223774510531613e-01  1.1028599202902643e+