<?xml version="1.0"?>
<VTKFile type="UnstructuredGrid"  version="0.1"  >
<UnstructuredGrid>
<Piece  NumberOfPoints="2601" NumberOfCells="5000">
<Points>
<DataArray  type="Float64"  NumberOfComponents="3"  format="ascii">0 0 0  0.02 0 0  0.04 0 0  0.06 0 0  0.08 0 0  0.1 0 0  0.12 0 0  0.14 0 0  0.16 0 0  0.18 0 0  0.2 0 0  0.22 0 0  0.24 0 0  0.26 0 0  0.28 0 0  0.3 0 0  0.32 0 0  0.34 0 0  0.36 0 0  0.38 0 0  0.4 0 0  0.42 0 0  0.44 0 0  0.46 0 0  0.48 0 0  0.5 0 0  0.52 0 0  0.54 0 0  0.5600000000000001 0 0  0.58 0 0  0.6 0 0  0.62 0 0  0.64 0 0  0.66 0 0  0.68 0 0  0.7 0 0  0.72 0 0  0.74 0 0  0.76 0 0  0.78 0 0  0.8 0 0  0.82 0 0  0.84 0 0  0.86 0 0  0.88 0 0  0.9 0 0  0.92 0 0  0.9399999999999999 0 0  0.96 0 0  0.98 0 0  1 0 0  0 0.02 0  0.02 0.02 0  0.04 0.02 0  0.06 0.02 0  0.08 0.02 0  0.1 0.02 0  0.12 0.02 0  0.14 0.02 0  0.16 0.02 0  0.18 0.02 0  0.2 0.02 0  0.22 0.02 0  0.24 0.02 0  0.26 0.02 0  0.28 0.02 0  0.3 0.02 0  0.32 0.02 0  0.34 0.02 0  0.36 0.02 0  0.38 0.02 0  0.4 0.02 0  0.42 0.02 0  0.44 0.02 0  0.46 0.02 0  0.48 0.02 0  0.5 0.02 0  0.52 0.02 0  0.54 0.02 0  0.5600000000000001 0.02 0  0.58 0.02 0  0.6 0.02 0  0.62 0.02 0  0.64 0.02 0  0.66 0.02 0  0.68 0.02 0  0.7 0.02 0  0.72 0.02 0  0.74 0.02 0  0.76 0.02 0  0.78 0.02 0  0.8 0.02 0  0.82 0.02 0  0.84 0.02 0  0.86 0.02 0  0.88 0.02 0  0.9 0.02 0  0.92 0.02 0  0.9399999999999999 0.02 0  0.96 0.02 0  0.98 0.02 0  1 0.02 0  0 0.04 0  0.02 0.04 0  0.04 0.04 0  0.06 0.04 0  0.08 0.04 0  0.1 0.04 0  0.12 0.04 0  0.14 0.04 0  0.16 0.04 0  0.18 0.04 0  0.2 0.04 0  0.22 0.04 0  0.24 0.04 0  0.26 0.04 0  0.28 0.04 0  0.3 0.04 0  0.32 0.04 0  0.34 0.04 0  0.36 0.04 0  0.38 0.04 0  0.4 0.04 0  0.42 0.04 0  0.44 0.04 0  0.46 0.04 0  0.48 0.04 0  0.5 0.04 0  0.52 0.04 0  0.54 0.04 0  0.5600000000000001 0.04 0  0.58 0.04 0  0.6 0.04 0  0.62 0.04 0  0.64 0.04 0  0.66 0.04 0  0.68 0.04 0  0.7 0.04 0  0.72 0.04 0  0.74 0.04 0  0.76 0.04 0  0.78 0.04 0  0.8 0.04 0  0.82 0.04 0  0.84 0.04 0  0.86 0.04 0  0.88 0.04 0  0.9 0.04 0  0.92 0.04 0  0.9399999999999999 0.04 0  0.96 0.04 0  0.98 0.04 0  1 0.04 0  0 0.06 0  0.02 0.06 0  0.04 0.06 0  0.06 0.06 0  0.08 0.06 0  0.1 0.06 0  0.12 0.06 0  0.14 0.06 0  0.16 0.06 0  0.18 0.06 0  0.2 0.06 0  0.22 0.06 0  0.24 0.06 0  0.26 0.06 0  0.28 0.06 0  0.3 0.06 0  0.32 0.06 0  0.34 0.06 0  0.36 0.06 0  0.38 0.06 0  0.4 0.06 0  0.42 0.06 0  0.44 0.06 0  0.46 0.06 0  0.48 0.06 0  0.5 0.06 0  0.52 0.06 0  0.54 0.06 0  0.5600000000000001 0.06 0  0.58 0.06 0  0.6 0.06 0  0.62 0.06 0  0.64 0.06 0  0.66 0.06 0  0.68 0.06 0  0.7 0.06 0  0.72 0.06 0  0.74 0.06 0  0.76 0.06 0  0.78 0.06 0  0.8 0.06 0  0.82 0.06 0  0.84 0.06 0  0.86 0.06 0  0.88 0.06 0  0.9 0.06 0  0.92 0.06 0  0.9399999999999999 0.06 0  0.96 0.06 0  0.98 0.06 0  1 0.06 0  0 0.08 0  0.02 0.08 0  0.04 0.08 0  0.06 0.08 0  0.08 0.08 0  0.1 0.08 0  0.12 0.08 0  0.14 0.08 0  0.16 0.08 0  0.18 0.08 0  0.2 0.08 0  0.22 0.08 0  0.24 0.08 0  0.26 0.08 0  0.28 0.08 0  0.3 0.08 0  0.32 0.08 0  0.34 0.08 0  0.36 0.08 0  0.38 0.08 0  0.4 0.08 0  0.42 0.08 0  0.44 0.08 0  0.46 0.08 0  0.48 0.08 0  0.5 0.08 0  0.52 0.08 0  0.54 0.08 0  0.5600000000000001 0.08 0  0.58 0.08 0  0.6 0.08 0  0.62 0.08 0  0.64 0.08 0  0.66 0.08 0  0.68 0.08 0  0.7 0.08 0  0.72 0.08 0  0.74 0.08 0  0.76 0.08 0  0.78 0.08 0  0.8 0.08 0  0.82 0.08 0  0.84 0.08 0  0.86 0.08 0  0.88 0.08 0  0.9 0.08 0  0.92 0.08 0  0.9399999999999999 0.08 0  0.96 0.08 0  0.98 0.08 0  1 0.08 0  0 0.1 0  0.02 0.1 0  0.04 0.1 0  0.06 0.1 0  0.08 0.1 0  0.1 0.1 0  0.12 0.1 0  0.14 0.1 0  0.16 0.1 0  0.18 0.1 0  0.2 0.1 0  0.22 0.1 0  0.24 0.1 0  0.26 0.1 0  0.28 0.1 0  0.3 0.1 0  0.32 0.1 0  0.34 0.1 0  0.36 0.1 0  0.38 0.1 0  0.4 0.1 0  0.42 0.1 0  0.44 0.1 0  0.46 0.1 0  0.48 0.1 0  0.5 0.1 0  0.52 0.1 0  0.54 0.1 0  0.5600000000000001 0.1 0  0.58 0.1 0  0.6 0.1 0  0.62 0.1 0  0.64 0.1 0  0.66 0.1 0  0.68 0.1 0  0.7 0.1 0  0.72 0.1 0  0.74 0.1 0  0.76 0.1 0  0.78 0.1 0  0.8 0.1 0  0.82 0.1 0  0.84 0.1 0  0.86 0.1 0  0.88 0.1 0  0.9 0.1 0  0.92 0.1 0  0.9399999999999999 0.1 0  0.96 0.1 0  0.98 0.1 0  1 0.1 0  0 0.12 0  0.02 0.12 0  0.04 0.12 0  0.06 0.12 0  0.08 0.12 0  0.1 0.12 0  0.12 0.12 0  0.14 0.12 0  0.16 0.12 0  0.18 0.12 0  0.2 0.12 0  0.22 0.12 0  0.24 0.12 0  0.26 0.12 0  0.28 0.12 0  0.3 0.12 0  0.32 0.12 0  0.34 0.12 0  0.36 0.12 0  0.38 0.12 0  0.4 0.12 0  0.42 0.12 0  0.44 0.12 0  0.46 0.12 0  0.48 0.12 0  0.5 0.12 0  0.52 0.12 0  0.54 0.12 0  0.5600000000000001 0.12 0  0.58 0.12 0  0.6 0.12 0  0.62 0.12 0  0.64 0.12 0  0.66 0.12 0  0.68 0.12 0  0.7 0.12 0  0.72 0.12 0  0.74 0.12 0  0.76 0.12 0  0.78 0.12 0  0.8 0.12 0  0.82 0.12 0  0.84 0.12 0  0.86 0.12 0  0.88 0.12 0  0.9 0.12 0  0.92 0.12 0  0.9399999999999999 0.12 0  0.96 0.12 0  0.98 0.12 0  1 0.12 0  0 0.14 0  0.02 0.14 0  0.04 0.14 0  0.06 0.14 0  0.08 0.14 0  0.1 0.14 0  0.12 0.14 0  0.14 0.14 0  0.16 0.14 0  0.18 0.14 0  0.2 0.14 0  0.22 0.14 0  0.24 0.14 0  0.26 0.14 0  0.28 0.14 0  0.3 0.14 0  0.32 0.14 0  0.34 0.14 0  0.36 0.14 0  0.38 0.14 0  0.4 0.14 0  0.42 0.14 0  0.44 0.14 0  0.46 0.14 0  0.48 0.14 0  0.5 0.14 0  0.52 0.14 0  0.54 0.14 0  0.5600000000000001 0.14 0  0.58 0.14 0  0.6 0.14 0  0.62 0.14 0  0.64 0.14 0  0.66 0.14 0  0.68 0.14 0  0.7 0.14 0  0.72 0.14 0  0.74 0.14 0  0.76 0.14 0  0.78 0.14 0  0.8 0.14 0  0.82 0.14 0  0.84 0.14 0  0.86 0.14 0  0.88 0.14 0  0.9 0.14 0  0.92 0.14 0  0.9399999999999999 0.14 0  0.96 0.14 0  0.98 0.14 0  1 0.14 0  0 0.16 0  0.02 0.16 0  0.04 0.16 0  0.06 0.16 0  0.08 0.16 0  0.1 0.16 0  0.12 0.16 0  0.14 0.16 0  0.16 0.16 0  0.18 0.16 0  0.2 0.16 0  0.22 0.16 0  0.24 0.16 0  0.26 0.16 0  0.28 0.16 0  0.3 0.16 0  0.32 0.16 0  0.34 0.16 0  0.36 0.16 0  0.38 0.16 0  0.4 0.16 0  0.42 0.16 0  0.44 0.16 0  0.46 0.16 0  0.48 0.16 0  0.5 0.16 0  0.52 0.16 0  0.54 0.16 0  0.5600000000000001 0.16 0  0.58 0.16 0  0.6 0.16 0  0.62 0.16 0  0.64 0.16 0  0.66 0.16 0  0.68 0.16 0  0.7 0.16 0  0.72 0.16 0  0.74 0.16 0  0.76 0.16 0  0.78 0.16 0  0.8 0.16 0  0.82 0.16 0  0.84 0.16 0  0.86 0.16 0  0.88 0.16 0  0.9 0.16 0  0.92 0.16 0  0.9399999999999999 0.16 0  0.96 0.16 0  0.98 0.16 0  1 0.16 0  0 0.18 0  0.02 0.18 0  0.04 0.18 0  0.06 0.18 0  0.08 0.18 0  0.1 0.18 0  0.12 0.18 0  0.14 0.18 0  0.16 0.18 0  0.18 0.18 0  0.2 0.18 0  0.22 0.18 0  0.24 0.18 0  0.26 0.18 0  0.28 0.18 0  0.3 0.18 0  0.32 0.18 0  0.34 0.18 0  0.36 0.18 0  0.38 0.18 0  0.4 0.18 0  0.42 0.18 0  0.44 0.18 0  0.46 0.18 0  0.48 0.18 0  0.5 0.18 0  0.52 0.18 0  0.54 0.18 0  0.5600000000000001 0.18 0  0.58 0.18 0  0.6 0.18 0  0.62 0.18 0  0.64 0.18 0  0.66 0.18 0  0.68 0.18 0  0.7 0.18 0  0.72 0.18 0  0.74 0.18 0  0.76 0.18 0  0.78 0.18 0  0.8 0.18 0  0.82 0.18 0  0.84 0.18 0  0.86 0.18 0  0.88 0.18 0  0.9 0.18 0  0.92 0.18 0  0.9399999999999999 0.18 0  0.96 0.18 0  0.98 0.18 0  1 0.18 0  0 0.2 0  0.02 0.2 0  0.04 0.2 0  0.06 0.2 0  0.08 0.2 0  0.1 0.2 0  0.12 0.2 0  0.14 0.2 0  0.16 0.2 0  0.18 0.2 0  0.2 0.2 0  0.22 0.2 0  0.24 0.2 0  0.26 0.2 0  0.28 0.2 0  0.3 0.2 0  0.32 0.2 0  0.34 0.2 0  0.36 0.2 0  0.38 0.2 0  0.4 0.2 0  0.42 0.2 0  0.44 0.2 0  0.46 0.2 0  0.48 0.2 0  0.5 0.2 0  0.52 0.2 0  0.54 0.2 0  0.5600000000000001 0.2 0  0.58 0.2 0  0.6 0.2 0  0.62 0.2 0  0.64 0.2 0  0.66 0.2 0  0.68 0.2 0  0.7 0.2 0  0.72 0.2 0  0.74 0.2 0  0.76 0.2 0  0.78 0.2 0  0.8 0.2 0  0.82 0.2 0  0.84 0.2 0  0.86 0.2 0  0.88 0.2 0  0.9 0.2 0  0.92 0.2 0  0.9399999999999999 0.2 0  0.96 0.2 0  0.98 0.2 0  1 0.2 0  0 0.22 0  0.02 0.22 0  0.04 0.22 0  0.06 0.22 0  0.08 0.22 0  0.1 0.22 0  0.12 0.22 0  0.14 0.22 0  0.16 0.22 0  0.18 0.22 0  0.2 0.22 0  0.22 0.22 0  0.24 0.22 0  0.26 0.22 0  0.28 0.22 0  0.3 0.22 0  0.32 0.22 0  0.34 0.22 0  0.36 0.22 0  0.38 0.22 0  0.4 0.22 0  0.42 0.22 0  0.44 0.22 0  0.46 0.22 0  0.48 0.22 0  0.5 0.22 0  0.52 0.22 0  0.54 0.22 0  0.5600000000000001 0.22 0  0.58 0.22 0  0.6 0.22 0  0.62 0.22 0  0.64 0.22 0  0.66 0.22 0  0.68 0.22 0  0.7 0.22 0  0.72 0.22 0  0.74 0.22 0  0.76 0.22 0  0.78 0.22 0  0.8 0.22 0  0.82 0.22 0  0.84 0.22 0  0.86 0.22 0  0.88 0.22 0  0.9 0.22 0  0.92 0.22 0  0.9399999999999999 0.22 0  0.96 0.22 0  0.98 0.22 0  1 0.22 0  0 0.24 0  0.02 0.24 0  0.04 0.24 0  0.06 0.24 0  0.08 0.24 0  0.1 0.24 0  0.12 0.24 0  0.14 0.24 0  0.16 0.24 0  0.18 0.24 0  0.2 0.24 0  0.22 0.24 0  0.24 0.24 0  0.26 0.24 0  0.28 0.24 0  0.3 0.24 0  0.32 0.24 0  0.34 0.24 0  0.36 0.24 0  0.38 0.24 0  0.4 0.24 0  0.42 0.24 0  0.44 0.24 0  0.46 0.24 0  0.48 0.24 0  0.5 0.24 0  0.52 0.24 0  0.54 0.24 0  0.5600000000000001 0.24 0  0.58 0.24 0  0.6 0.24 0  0.62 0.24 0  0.64 0.24 0  0.66 0.24 0  0.68 0.24 0  0.7 0.24 0  0.72 0.24 0  0.74 0.24 0  0.76 0.24 0  0.78 0.24 0  0.8 0.24 0  0.82 0.24 0  0.84 0.24 0  0.86 0.24 0  0.88 0.24 0  0.9 0.24 0  0.92 0.24 0  0.9399999999999999 0.24 0  0.96 0.24 0  0.98 0.24 0  1 0.24 0  0 0.26 0  0.02 0.26 0  0.04 0.26 0  0.06 0.26 0  0.08 0.26 0  0.1 0.26 0  0.12 0.26 0  0.14 0.26 0  0.16 0.26 0  0.18 0.26 0  0.2 0.26 0  0.22 0.26 0  0.24 0.26 0  0.26 0.26 0  0.28 0.26 0  0.3 0.26 0  0.32 0.26 0  0.34 0.26 0  0.36 0.26 0  0.38 0.26 0  0.4 0.26 0  0.42 0.26 0  0.44 0.26 0  0.46 0.26 0  0.48 0.26 0  0.5 0.26 0  0.52 0.26 0  0.54 0.26 0  0.5600000000000001 0.26 0  0.58 0.26 0  0.6 0.26 0  0.62 0.26 0  0.64 0.26 0  0.66 0.26 0  0.68 0.26 0  0.7 0.26 0  0.72 0.26 0  0.74 0.26 0  0.76 0.26 0  0.78 0.26 0  0.8 0.26 0  0.82 0.26 0  0.84 0.26 0  0.86 0.26 0  0.88 0.26 0  0.9 0.26 0  0.92 0.26 0  0.9399999999999999 0.26 0  0.96 0.26 0  0.98 0.26 0  1 0.26 0  0 0.28 0  0.02 0.28 0  0.04 0.28 0  0.06 0.28 0  0.08 0.28 0  0.1 0.28 0  0.12 0.28 0  0.14 0.28 0  0.16 0.28 0  0.18 0.28 0  0.2 0.28 0  0.22 0.28 0  0.24 0.28 0  0.26 0.28 0  0.28 0.28 0  0.3 0.28 0  0.32 0.28 0  0.34 0.28 0  0.36 0.28 0  0.38 0.28 0  0.4 0.28 0  0.42 0.28 0  0.44 0.28 0  0.46 0.28 0  0.48 0.28 0  0.5 0.28 0  0.52 0.28 0  0.54 0.28 0  0.5600000000000001 0.28 0  0.58 0.28 0  0.6 0.28 0  0.62 0.28 0  0.64 0.28 0  0.66 0.28 0  0.68 0.28 0  0.7 0.28 0  0.72 0.28 0  0.74 0.28 0  0.76 0.28 0  0.78 0.28 0  0.8 0.28 0  0.82 0.28 0  0.84 0.28 0  0.86 0.28
[...]
<PointData  Scalars="f_14"> 
<DataArray  type="Float64"  Name="f_14"  format="ascii">7.0475173353666143e-01  7.0526521458182478e-01  7.0647875565566587e-01  7.0828973894601399e-01  7.1063523222443203e-01  7.1346604897423949e-01  7.1673964539092760e-01  7.2041709403929555e-01  7.2446150743455051e-01  7.2883712993911076e-01  7.3350879677894210e-01  7.3844162414002179e-01  7.4360086092146849e-01  7.4895186193414420e-01  7.5446015535246702e-01  7.6009158264189747e-01  7.6581249101658611e-01  7.7158995891660698e-01  7.7739203538108648e-01  7.8318797540577401e-01  7.8894845592269669e-01  7.9464576105955054e-01  8.0025393047853299e-01  8.0574887002167395e-01  8.1110842861401533e-01  8.1631244872610675e-01  8.2134279931711951e-01  8.2618339975112531e-01  8.3082024062667237e-01  8.3524140342997133e-01  8.3943707657587752e-01  8.4339956176342767e-01  8.4712326236626112e-01  8.5060464527853696e-01  8.5384216928463408e-01  8.5683617611009155e-01  8.5958874403587149e-01  8.6210350754551679e-01  8.6438544935992723e-01  8.6644067307961337e-01  8.6827616542140362e-01  8.6989955683245901e-01  8.7131888836230498e-01  8.7254239143503576e-01  8.7357828601629817e-01  8.7443460216416879e-01  8.7511903100694743e-01  8.7563881561793355e-01  8.7600070347124737e-01  8.7621104935441863e-01  8.7627493128190326e-01  7.0415111387576734e-01  7.0467378374617962e-01  7.0581723701651866e-01  7.0753429129225009e-01  7.0977279604301724e-01  7.1248747410533764e-01  7.1563774190950624e-01  7.1918590079005162e-01  7.2309599091781829e-01  7.2733306252826546e-01  7.3186272010385467e-01  7.3665085697921417e-01  7.4166353191155721e-01  7.4686695643154488e-01  7.5222756983803551e-01  7.5771218178357913e-01  7.6328816300781188e-01  7.6892366452802741e-01  7.7458784563734195e-01  7.8025109220024602e-01  7.8588520948318019e-01  7.9146357832478353e-01  7.9696126952871926e-01  8.0235511784004743e-01  8.0762376230532007e-01  8.1274766347472116e-01  8.1770910968899302e-01  8.2249222411255263e-01  8.2708298068029129e-01  8.3146923154934538e-01  8.3564074280385514e-01  8.3958923026470467e-01  8.4330838401064590e-01  8.4679386939189516e-01  8.5004329412643609e-01  8.5305613482326914e-01  8.5583362087968884e-01  8.5837857818898144e-01  8.6069523879520771e-01  8.6278902514468792e-01  8.6466631879118516e-01  8.6633422345121158e-01  8.6780033149931401e-01  8.6907250177496886e-01  8.7015865546528381e-01  8.7106659652319751e-01  8.7180386471218407e-01  8.7237763524516521e-01  8.7279470130308534e-01  8.7306163924778124e-01  8.7318419452135432e-01  7.0274053109356382e-01  7.0334867547416824e-01  7.0450587371303208e-01  7.0619593294536576e-01  7.0838219734623697e-01  7.1102736603064376e-01  7.1409537658025091e-01  7.1755135686720595e-01  7.2136129594385334e-01  7.2549171325997963e-01  7.2990941066736481e-01  7.3458132406313370e-01  7.3947447137074307e-01  7.4455598743738849e-01  7.4979323351207416e-01  7.5515396636749821e-01  7.6060654944361605e-01  7.6612018605256382e-01  7.7166515342345787e-01  7.7721301686270627e-01  7.8273680600738837e-01  7.8821114052969010e-01  7.9361230092861401e-01  7.9891824947780699e-01  8.0410861349638640e-01  8.0916464707209357e-01  8.1406918996183675e-01  8.1880664258421476e-01  8.2336297063372343e-01  8.2772574321549530e-01  8.3188419957920046e-01  8.3582933239648805e-01  8.3955396995760900e-01  8.4305283770096962e-01  8.4632258212723055e-01  8.4936174580279167e-01  8.5217068880766078e-01  8.5475145831777732e-01  8.5710761324147111e-01  8.5924401441029163e-01  8.6116659258936523e-01  8.6288210674834154e-01  8.6439790409632589e-01  8.6572169193488868e-01  8.6686133007868127e-01  8.6782465212309612e-01  8.6861932473725889e-01  8.6925275541099822e-01  8.6973206069582820e-01  8.7006399380087929e-01  8.7025208204190163e-01  7.0064906608975108e-01  7.0136389611336947e-01  7.0257526337053811e-01  7.0428172072242745e-01  7.0645633392551999e-01  7.0906887777993688e-01  7.1208820509491011e-01  7.1548288311399477e-01  7.1922139184629963e-01  7.2327213302374593e-01  7.2760339369989468e-01  7.3218333295779003e-01  7.3698002155968145e-01  7.4196154483658405e-01  7.4709616767662024e-01  7.5235255228473930e-01  7.5770001274336518e-01  7.6310878501877710e-01  7.6855028773063883e-01  7.7399734830034339e-01  7.7942437129866549e-01  7.8480743144616738e-01  7.9012428597571749e-01  7.9535431820894376e-01  8.0047843447647815e-01  8.0547893799213310e-01  8.1033940786559622e-01  8.1504461727223421e-01  8.1958051651678854e-01  8.2393428520626111e-01  8.2809444530520981e-01  8.3205101815841898e-01  8.3579569671480924e-01  8.3932199958827325e-01  8.4262537871989041e-01  8.4570326234760351e-01  8.4855502522847470e-01  8.5118188738028766e-01  8.5358675041444876e-01  8.5577398575174091e-01  8.5774919138227590e-01  8.5951893381987921e-01  8.6109049023861617e-01  8.6247160327034955e-01  8.6367025822727661e-01  8.6469448974593088e-01  8.6555222082638861e-01  8.6625112685897909e-01  8.6679850021711680e-01  8.6720089426891345e-01  8.6745951570704916e-01  6.9794713020444088e-01  6.9878203989552634e-01  7.0007199658307684e-01  7.0182472978277977e-01  7.0401891810861561e-01  7.0662940002539820e-01  7.0962920688204822e-01  7.1299019204630099e-01  7.1668339233010425e-01  7.2067920836263299e-01  7.2494750819929088e-01  7.2945772232342876e-01  7.3417896976519104e-01  7.3908023567380488e-01  7.4413060649069274e-01  7.4929955714889995e-01  7.5455727457302979e-01  7.5987499219964649e-01  7.6522530419919621e-01  7.7058242590431292e-01  7.7592236878555609e-01  7.8122299987272337e-01  7.8646397112949373e-01  7.9162654593579118e-01  7.9669336911859756e-01  8.0164820660321301e-01  8.0647568959765370e-01  8.1116112996742795e-01  8.1569046991139749e-01  8.2005035310680663e-01  8.2422830268768843e-01  8.2821299295383866e-01  8.3199456266123695e-01  8.3556491056525117e-01  8.3891792601264170e-01  8.4204962755624113e-01  8.4495819746776957e-01  8.4764391323291455e-01  8.5010898965058745e-01  8.5235735273063196e-01  8.5439436937828894e-01  8.5622655605738496e-01  8.5786128629983716e-01  8.5930651232730570e-01  8.6057051094937342e-01  8.6166165818845908e-01  8.6258822916620415e-01  8.6335820575282052e-01  8.6397906813838699e-01  8.6445731648664814e-01  8.6479225156325390e-01  6.9468403579797344e-01  6.9565011961878875e-01  6.9703636682530690e-01  6.9885748580959184e-01  7.0109562383972979e-01  7.0372913478653976e-01  7.0673432083961052e-01  7.1008585658872136e-01  7.1375711699033462e-01  7.1772039424613709e-01  7.2194706112930607e-01  7.2640773111587498e-01  7.3107245188750225e-01  7.3591095517560623e-01  7.4089297276648403e-01  7.4598861462821653e-01  7.5116879228325295e-01  7.5640565448513775e-01  7.6167299457177062e-01  7.6694657319040671e-01  7.7220432868066080e-01  7.7742642260009964e-01  7.8259503413434339e-01  7.8769400079820717e-01  7.9270840524233166e-01  7.9762413497873530e-01  8.0242739055599410e-01  8.0710428590246042e-01  8.1164078207665058e-01  8.1602278539621320e-01  8.2023639958302852e-01  8.2426837946772202e-01  8.2810667502674584e-01  8.3174094343224658e-01  8.3516295713215016e-01  8.3836687712732794e-01  8.4134937308463487e-01  8.4410958941422864e-01  8.4664898154883161e-01  8.4897105554513874e-01  8.5108104682146735e-01  8.5298557141666231e-01  8.5469227662629721e-01  8.5620950999337520e-01  8.5754601765468097e-01  8.5871067498097431e-01  8.5971224338573604e-01  8.6055913571843368e-01  8.6125918339595953e-01  8.6181911235571851e-01  8.6223664125934563e-01  6.9089833853943183e-01  6.9200586652807228e-01  6.9350286041767017e-01  6.9541000702820910e-01  6.9771183934184300e-01  7.0038925144688924e-01  7.0342108688225091e-01  7.0678434869973616e-01  7.1045442387008151e-01  7.1440526176828911e-01  7.1860953785280446e-01  7.2303883873103902e-01  7.2766390066974795e-01  7.3245492562128656e-01  7.3738198780896014e-01  7.4241552772953967e-01  7.4752691663361004e-01  7.5268903870658499e-01  7.5787687190008290e-01  7.6306788343690024e-01  7.6824232468748566e-01  7.7338339882352547e-01  7.7847678058505165e-01  7.8350988901055041e-01  7.8847124905878618e-01  7.9334994136066583e-01  7.9813463886259706e-01  8.0281258549055956e-01  8.0736980775902500e-01  8.1179126086805964e-01  8.1606094981890809e-01  8.2016284187218413e-01  8.2408172904980403e-01  8.2780411461224346e-01  8.3131883999219747e-01  8.3461755615652256e-01  8.3769496191505732e-01  8.4054879689692685e-01  8.4317965033237419e-01  8.4559063342302143e-01  8.4778697064190989e-01  8.4977555962325046e-01  8.5156453603468563e-01  8.5316286717513412e-01  8.5457998682670155e-01  8.5582547390367802e-01  8.5690876840509522e-01  8.5783890993605361e-01  8.5862430704896719e-01  8.5927218391362159e-01  8.5977893384935278e-01  6.8662240054095580e-01  6.8788133748323521e-01  6.8950178241585458e-01  6.9150989741728996e-01  6.9389206419696814e-01  6.9663114692828598e-01  6.9970802454119019e-01  7.0310161832235085e-01  7.0678899663487749e-01  7.1074547874177396e-01  7.1494475976416894e-01  7.1935908784016789e-01  7.2395952565541510e-01  7.2871632502418959e-01  7.3359943458746979e-01  7.3857913561172706e-01  7.4362681519887330e-01  7.4871572659530516e-01  7.5382197970933884e-01  7.5892480867051426e-01  7.6400709256295118e-01  7.6905645558258839e-01  7.7406344562158269e-01  7.7902066322163765e-01  7.8392060446059697e-01  7.8875800860304834e-01  7.9352561215935735e-01  7.9821212003079589e-01  8.0280304616426201e-01  8.0728322153138210e-01  8.1163327443732647e-01  8.1583252937570716e-01  8.1986143480103169e-01  8.2370197296405578e-01  8.2733886055013039e-01  8.3076032128311728e-01  8.3395846481298785e-01  8.3692927173785081e-01  8.3967234537449309e-01  8.4219045885513999e-01  8.4448900227473933e-01  8.4657540379072260e-01  8.4845857120087009e-01  8.5014838279984106e-01  8.5165524159139805e-01  8.5298969466876928e-01  8.5416211024978062e-01  8.5518239843540944e-01  8.5605979254291409e-01  8.5680226425406203e-01  8.5740511505591799e-01  6.8188491329487999e-01  6.8330511031037822e-01  6.8506067395794901e-01  6.8718297330841505e-01  6.8965999856046112e-01  6.9247627765305975e-01  6.9561440653167561e-01  6.9905492231867028e-01  7.0277628660636537e-01  7.0675489399024549e-01  7.1096512887745311e-01  7.1537950458522270e-01  7.1996892405496360e-01  7.2470309974706482e-01  7.2955116976091972e-01  7.3448251174495394e-01  7.3946783861132459e-01  7.4447995781787890e-01  7.4949618700180665e-01  7.5449766683228014e-01  7.5946933674144979e-01  7.6440989188619213e-01  7.6932348343122126e-01  7.7420637256608038e-01  7.7905044295480808e-01  7.8384677267913994e-01  7.8858718721184029e-01  7.9326562472026441e-01  7.9787678120785122e-01  8.0241578184493922e-01  8.0686976305088542e-01  8.1120204585540567e-01  8.1537731493557020e-01  8.1937432158326762e-01  8.2317046826980922e-01  8.2674959444806173e-01  8.3010042536430173e-01  8.3321675040473353e-01  8.3609710483759214e-01  8.3874406637758381e-01  8.4116347512209200e-01  8.4336365248362932e-01  8.4535467096084349e-01  8.4714770878320056e-01  8.4875450419867005e-01  8.5018690799013841e-01  8.5145652241445757e-01  8.5257440927462436e-01  8.5355088666379686e-01  8.5439490958064290e-01  8.5510092272962368e-01  6.7671249042178427e-01  6.7830373581607406e-01  6.8020541084635155e-01  6.8245394833784412e-01  6.8503888376127664e-01  6.8794627934848085e-01  6.9116027735755670e-01  6.9466283462401623e-01  6.9843358100630748e-01  7.0244971331545880e-01  7.0668595359615860e-01  7.1111461483142269e-01  7.1570582730329013e-01  7.2042798554137755e-01  7.2524845092263401e-01  7.3013454122039190e-01  7.3505552722287082e-01  7.3998248274763134e-01  7.4489522453880141e-01  7.4980501900697161e-01  7.5471476128515813e-01  7.5961269061626713e-01  7.6448954048523043e-01  7.6933758852308265e-01  7.7414875469447064e-01  7.7891553767585242e-01  7.8363100879716541e-01  7.8828921666160146e-01  7.9288479762537400e-01  7.9741291033076012e-01  8.0186953474307721e-01  8.0625009900712963e-01  8.1055475963552071e-01  8.1475226176217830e-01  8.1875435184481127e-01  8.2253539185772551e-01  8.2607859666753225e-01  8.2937532448091145e-01  8.3242310704134548e-01  8.3522463721900164e-01  8.3778667103417703e-01  8.4011896395010444e-01  8.4223330551720343e-01  8.4414269706124512e-01  8.4586068577745666e-01  8.4740084440724162e-01  8.4877637446427023e-01  8.4999980723501101e-01  8.5108282002603797e-01  8.5203558435951776e-01  8.5285193619097610e-01  6.7113075903684283e-01  6.7290275516863474e-01  6.7496103950246478e-01  6.7734703983835920e-01  6.8005189257746024e-01  6.8306319398118154e-01  6.8636658387025784e-01  6.8994534619305448e-01  6.9378013231782854e-01  6.9784871497236867e-01  7.0212580929753077e-01  7.0658301545902003e-01  7.1118896423219014e-01  7.1590975388128153e-01  7.2070952198899207e-01  7.2555268931054784e-01  7.3040503319526973e-01  7.3526878105262317e-01  7.4014907364762439e-01  7.4503463429241790e-01  7.4991742871221845e-01  7.5478833678138169e-01  7.5963905236827545e-01  7.6446199947463456e-01  7.6924998955949153e-01  7.7399632836771870e-01  7.7869488474008963e-01  7.8334016614310309e-01  7.8792727022606346e-01  7.9245185553473707e-01  7.9691014919331205e-01  8.0129903570519156e-01  8.0561598854879712e-01  8.0985927809651392e-01  8.1402809384237629e-01  8.1806377959965559e-01  8.2184845208054647e-01  8.2536809739213512e-01  8.2861938058104834e-01  8.3160569148756081e-01  8.3433545048752944e-01  8.3682065610678413e-01  8.3907559340875826e-01  8.4111578758572103e-01  8.4295720202785562e-01  8.4461564597997862e-01  8.4610635064056594e-01  8.4744367386828812e-01  8.4864094500185283e-01  8.4970978979737954e-01  8.5064370045243132e-01  6.6516514258119808e-01  6.6712743602639935e-01  6.6935240761342552e-01  6.7188646090162030e-01  6.7472247973754262e-01  6.7784970024237690e-01  6.8125532238704989e-01  6.8492397328083476e-01  6.8883727763095648e-01  6.9297343800093347e-01  6.9730686732321434e-01  7.0180793849328693e-01  7.0644292330985003e-01  7.1117439640163871e-01  7.1596197924428140e-01  7.2077306402762309e-01  7.2561133016589763e-01  7.3046963756068439e-01  7.3533953609438096e-01  7.4021231303742785e-01  7.4507998192033842e-01  7.4993475193595982e-01  7.5476926742825678e-01  7.5957666295564852e-01  7.6435051832372669e-01  7.6908488217549620e-01  7.7377430119462909e-01  7.7841385100739102e-01  7.8299913824881484e-01  7.8752629657824580e-01  7.9199199521578290e-01  7.9639346289060564e-01  8.0072848739410596e-01  8.0499535283248203e-01  8.0919279168655744e-01  8.1331992182346813e-01  8.1736404798308848e-01  8.2115826003487269e-01  8.2465587567892285e-01  8.2786205924425360e-01  8.3078807792266129e-01  8.3344938592575479e-01  8.3586385109519523e-01  8.3805044808751061e-01  8.4002832282580853e-01  8.4181614416291328e-01  8.4343167343982728e-01  8.4489149324225232e-01  8.4621089787678028e-01  8.4740321219020454e-01  8.4846186595417006e-01  6.5884143053923816e-01  6.6100330778458172e-01  6.6340462942086920e-01  6.6609679207024330e-01  6.6907465149575496e-01  6.7232928709734130e-01  6.7584963429186473e-01  6.7962180318711363e-01  6.8362847323507192e-01  6.8784826011480016e-01  6.9225509224790671e-01  6.9681762749330767e-01  7.0149894339779295e-01  7.0625662637334818e-01  7.1105390167757399e-01  7.1588157117569784e-01  7.2073137309157931e-01  7.2559584249884479e-01  7.3046717088631008e-01  7.3533796654302641e-01  7.4020111361564411e-01  7.4504980867001969e-01  7.4987759984485780e-01  7.5467842594596923e-01  7.5944662828148934e-01  7.6417696735508955e-01  7.6886464411651723e-01  7.7350531971656500e-01  7.7809512651337887e-01  7.8263067445221657e-01  7.8710905876951143e-01  7.9152786720936963e-01  7.9588517631640410e-01  8.0017953521584351e-01  8.0440994782777775e-01  8.0857592050792704e-01  8.1267746607058278e-01  8.1671049098813298e-01  8.2050505942496543e-01  8.2397121351424540e-01  8.2712527296192839e-01  8.2998796837201583e-01  8.3258222700903761e-01  8.3493166375342398e-01  8.3705955155478662e-01  8.3898815694885076e-01  8.4073834164795336e-01  8.4232934944374316e-01  8.4377876993471201e-01  8.4510187706638917e-01  8.4629233179291918e-01  6.5218618580199905e-01  6.5455654053418233e-01  6.5714341160445722e-01  6.6000323479891976e-01  6.6313313448872269e-01  6.6652633383630133e-01  6.7017380107933022e-01  6.7406341707455486e-01  6.7817917196291966e-01  6.8250027334529917e-01  6.8700011452191989e-01  6.9164541018903525e-01  6.9639573642087649e-01  7.0120164590951251e-01  7.0603710526844510e-01  7.1089475111811529e-01  7.1576768036471838e-01  7.2064913170698952e-01  7.2553251852245249e-01  7.3041147440058463e-01  7.3527986099669440e-01  7.4013180689844971e-01  7.4496173619038930e-01  7.4976439679189277e-01  7.5453488289018011e-01  7.5926865453396530e-01  7.6396155683078415e-01  7.6860983719377562e-01  7.7321015853553354e-01  7.7775960905599673e-01  7.8225570987640125e-01  7.8669641957114156e-01  7.9108013310442615e-01  7.9540567578561838e-01  7.9967229858763589e-01  8.0387967648032477e-01  8.0802788146064586e-01  8.1211754910734202e-01  8.1614421093328426e-01  8.1991497372464539e-01  8.2333148010158708e-01  8.2642232057295761e-01  8.2921740405720101e-01  8.3174646070660485e-01  8.3403801883723183e-01  8.3611879070637385e-01  8.3801336869653331e-01  8.3974412225669215e-01  8.4133127510336725e-01  8.4279229848923365e-01  8.4412138327419595e-01  6.4522701901838242e-01  6.4781419467961554e-01  6.5059525775613869e-01  6.5363175201462120e-01  6.5692343576652545e-01  6.6046607569420934e-01  6.6425310488329570e-01  6.6827463943372400e-01  6.7251646628260775e-01  6.7695883568740955e-01  6.8157497615434648e-01  6.8632967292901337e-01  6.9116788210287150e-01  6.9603324288671653e-01  7.0091809527896842e-01  7.0581653930509591e-01  7.1072280804283350e-01  7.1563127105840763e-01  7.2053641870695184e-01  7.2543289461517979e-01  7.3031552385640608e-01  7.3517934431157284e-01  7.4001963468813847e-01  7.4483194113966456e-01  7.4961210099630748e-01  7.5435626400250644e-01  7.5906091165162071e-01  7.6372287428190389e-01  7.6833934530608161e-01  7.7290789250521730e-01  7.7742646648079838e-01  7.8189340584640177e-01  7.8630743855091878e-01  7.9066767965949836e-01  7.9497362659663873e-01  7.9922514981959714e-01  8.0342247344658557e-01  8.0756613086949403e-01  8.1165690808808566e-01  8.1568135738017900e-01  8.1939623427767794e-01  8.2274249219266260e-01  8.2575933401598856e-01  8.2848443157412544e-01  8.3095286430903448e-01  8.3319672529563160e-01  8.3524500395563017e-01  8.3712366687101958e-01  8.3885590273535227e-01  8.4046161426027688e-01  8.4193581589916766e-01  6.3799274933305294e-01  6.4080436011563535e-01  6.4378756640085721e-01  6.4700910449287130e-01  6.5047179540775357e-01  6.5417444864375662e-01  6.5811353972266462e-01  6.6228209246706882e-01  6.6666846412105807e-01  6.7125475044628224e-01  6.7601441891973224e-01  6.8090232539378914e-01  6.8582297724202790e-01  6.9075772117080925e-01  6.9570180386270453e-01  7.0065061103148729e-01  7.0559958441370962e-01  7.1054418692215382e-01  7.1547995236582551e-01  7.2040251612100481e-01  7.2530764485468335e-01  7.3019126570269266e-01  7.3504949406071918e-01  7.3987865983709666e-01  7.4467533161237165e-01  7.4943633865120851e-01  7.5415879081651305e-01  7.5884009622510695e-01  7.6347797638767645e-01  7.6807047866836053e-01  7.7261598593286140e-01  7.7711322315150066e-01  7.8156126071618159e-01  7.8595951439920897e-01  7.9030774170232720e-01  7.9460603323578582e-01  7.9885479650616276e-01  8.0305473082204992e-01  8.0720683502319301e-01  8.1131175952283441e-01  8.1531622032419926e-01  8.1894368787876415e-01  8.2220194253112056e-01  8.2513821400079590e-01  8.2779556865056569e-01  8.3021245473030714e-01  8.3242291676285396e-01  8.3445696282385184e-01  8.3634104456707681e-01  8.3809769865146444e-01  8.3972303885595567e-01  6.3051346707345601e-01  6.3355620116769629e-01  6.3674863791537173e-01  6.4016279658359765e-01  6.4380504282050866e-01  6.4767782089935932e-01  6.5178137203283482e-01  6.5611251945903182e-01  6.6066321066763045e-01  6.6541839102828093e-01  6.7035337330307254e-01  6.7535794473891275e-01  6.8036817930250693e-01  6.8538100869047880e