<?xml version="1.0"?>
<VTKFile type="UnstructuredGrid"  version="0.1"  >
<UnstructuredGrid>
<Piece  NumberOfPoints="2601" NumberOfCells="5000">
<Points>
<DataArray  type="Float64"  NumberOfComponents="3"  format="ascii">0 0 0  0.02 0 0  0.04 0 0  0.06 0 0  0.08 0 0  0.1 0 0  0.12 0 0  0.14 0 0  0.16 0 0  0.18 0 0  0.2 0 0  0.22 0 0  0.24 0 0  0.26 0 0  0.28 0 0  0.3 0 0  0.32 0 0  0.34 0 0  0.36 0 0  0.38 0 0  0.4 0 0  0.42 0 0  0.44 0 0  0.46 0 0  0.48 0 0  0.5 0 0  0.52 0 0  0.54 0 0  0.5600000000000001 0 0  0.58 0 0  0.6 0 0  0.62 0 0  0.64 0 0  0.66 0 0  0.68 0 0  0.7 0 0  0.72 0 0  0.74 0 0  0.76 0 0  0.78 0 0  0.8 0 0  0.82 0 0  0.84 0 0  0.86 0 0  0.88 0 0  0.9 0 0  0.92 0 0  0.9399999999999999 0 0  0.96 0 0  0.98 0 0  1 0 0  0 0.02 0  0.02 0.02 0  0.04 0.02 0  0.06 0.02 0  0.08 0.02 0  0.1 0.02 0  0.12 0.02 0  0.14 0.02 0  0.16 0.02 0  0.18 0.02 0  0.2 0.02 0  0.22 0.02 0  0.24 0.02 0  0.26 0.02 0  0.28 0.02 0  0.3 0.02 0  0.32 0.02 0  0.34 0.02 0  0.36 0.02 0  0.38 0.02 0  0.4 0.02 0  0.42 0.02 0  0.44 0.02 0  0.46 0.02 0  0.48 0.02 0  0.5 0.02 0  0.52 0.02 0  0.54 0.02 0  0.5600000000000001 0.02 0  0.58 0.02 0  0.6 0.02 0  0.62 0.02 0  0.64 0.02 0  0.66 0.02 0  0.68 0.02 0  0.7 0.02 0  0.72 0.02 0  0.74 0.02 0  0.76 0.02 0  0.78 0.02 0  0.8 0.02 0  0.82 0.02 0  0.84 0.02 0  0.86 0.02 0  0.88 0.02 0  0.9 0.02 0  0.92 0.02 0  0.9399999999999999 0.02 0  0.96 0.02 0  0.98 0.02 0  1 0.02 0  0 0.04 0  0.02 0.04 0  0.04 0.04 0  0.06 0.04 0  0.08 0.04 0  0.1 0.04 0  0.12 0.04 0  0.14 0.04 0  0.16 0.04 0  0.18 0.04 0  0.2 0.04 0  0.22 0.04 0  0.24 0.04 0  0.26 0.04 0  0.28 0.04 0  0.3 0.04 0  0.32 0.04 0  0.34 0.04 0  0.36 0.04 0  0.38 0.04 0  0.4 0.04 0  0.42 0.04 0  0.44 0.04 0  0.46 0.04 0  0.48 0.04 0  0.5 0.04 0  0.52 0.04 0  0.54 0.04 0  0.5600000000000001 0.04 0  0.58 0.04 0  0.6 0.04 0  0.62 0.04 0  0.64 0.04 0  0.66 0.04 0  0.68 0.04 0  0.7 0.04 0  0.72 0.04 0  0.74 0.04 0  0.76 0.04 0  0.78 0.04 0  0.8 0.04 0  0.82 0.04 0  0.84 0.04 0  0.86 0.04 0  0.88 0.04 0  0.9 0.04 0  0.92 0.04 0  0.9399999999999999 0.04 0  0.96 0.04 0  0.98 0.04 0  1 0.04 0  0 0.06 0  0.02 0.06 0  0.04 0.06 0  0.06 0.06 0  0.08 0.06 0  0.1 0.06 0  0.12 0.06 0  0.14 0.06 0  0.16 0.06 0  0.18 0.06 0  0.2 0.06 0  0.22 0.06 0  0.24 0.06 0  0.26 0.06 0  0.28 0.06 0  0.3 0.06 0  0.32 0.06 0  0.34 0.06 0  0.36 0.06 0  0.38 0.06 0  0.4 0.06 0  0.42 0.06 0  0.44 0.06 0  0.46 0.06 0  0.48 0.06 0  0.5 0.06 0  0.52 0.06 0  0.54 0.06 0  0.5600000000000001 0.06 0  0.58 0.06 0  0.6 0.06 0  0.62 0.06 0  0.64 0.06 0  0.66 0.06 0  0.68 0.06 0  0.7 0.06 0  0.72 0.06 0  0.74 0.06 0  0.76 0.06 0  0.78 0.06 0  0.8 0.06 0  0.82 0.06 0  0.84 0.06 0  0.86 0.06 0  0.88 0.06 0  0.9 0.06 0  0.92 0.06 0  0.9399999999999999 0.06 0  0.96 0.06 0  0.98 0.06 0  1 0.06 0  0 0.08 0  0.02 0.08 0  0.04 0.08 0  0.06 0.08 0  0.08 0.08 0  0.1 0.08 0  0.12 0.08 0  0.14 0.08 0  0.16 0.08 0  0.18 0.08 0  0.2 0.08 0  0.22 0.08 0  0.24 0.08 0  0.26 0.08 0  0.28 0.08 0  0.3 0.08 0  0.32 0.08 0  0.34 0.08 0  0.36 0.08 0  0.38 0.08 0  0.4 0.08 0  0.42 0.08 0  0.44 0.08 0  0.46 0.08 0  0.48 0.08 0  0.5 0.08 0  0.52 0.08 0  0.54 0.08 0  0.5600000000000001 0.08 0  0.58 0.08 0  0.6 0.08 0  0.62 0.08 0  0.64 0.08 0  0.66 0.08 0  0.68 0.08 0  0.7 0.08 0  0.72 0.08 0  0.74 0.08 0  0.76 0.08 0  0.78 0.08 0  0.8 0.08 0  0.82 0.08 0  0.84 0.08 0  0.86 0.08 0  0.88 0.08 0  0.9 0.08 0  0.92 0.08 0  0.9399999999999999 0.08 0  0.96 0.08 0  0.98 0.08 0  1 0.08 0  0 0.1 0  0.02 0.1 0  0.04 0.1 0  0.06 0.1 0  0.08 0.1 0  0.1 0.1 0  0.12 0.1 0  0.14 0.1 0  0.16 0.1 0  0.18 0.1 0  0.2 0.1 0  0.22 0.1 0  0.24 0.1 0  0.26 0.1 0  0.28 0.1 0  0.3 0.1 0  0.32 0.1 0  0.34 0.1 0  0.36 0.1 0  0.38 0.1 0  0.4 0.1 0  0.42 0.1 0  0.44 0.1 0  0.46 0.1 0  0.48 0.1 0  0.5 0.1 0  0.52 0.1 0  0.54 0.1 0  0.5600000000000001 0.1 0  0.58 0.1 0  0.6 0.1 0  0.62 0.1 0  0.64 0.1 0  0.66 0.1 0  0.68 0.1 0  0.7 0.1 0  0.72 0.1 0  0.74 0.1 0  0.76 0.1 0  0.78 0.1 0  0.8 0.1 0  0.82 0.1 0  0.84 0.1 0  0.86 0.1 0  0.88 0.1 0  0.9 0.1 0  0.92 0.1 0  0.9399999999999999 0.1 0  0.96 0.1 0  0.98 0.1 0  1 0.1 0  0 0.12 0  0.02 0.12 0  0.04 0.12 0  0.06 0.12 0  0.08 0.12 0  0.1 0.12 0  0.12 0.12 0  0.14 0.12 0  0.16 0.12 0  0.18 0.12 0  0.2 0.12 0  0.22 0.12 0  0.24 0.12 0  0.26 0.12 0  0.28 0.12 0  0.3 0.12 0  0.32 0.12 0  0.34 0.12 0  0.36 0.12 0  0.38 0.12 0  0.4 0.12 0  0.42 0.12 0  0.44 0.12 0  0.46 0.12 0  0.48 0.12 0  0.5 0.12 0  0.52 0.12 0  0.54 0.12 0  0.5600000000000001 0.12 0  0.58 0.12 0  0.6 0.12 0  0.62 0.12 0  0.64 0.12 0  0.66 0.12 0  0.68 0.12 0  0.7 0.12 0  0.72 0.12 0  0.74 0.12 0  0.76 0.12 0  0.78 0.12 0  0.8 0.12 0  0.82 0.12 0  0.84 0.12 0  0.86 0.12 0  0.88 0.12 0  0.9 0.12 0  0.92 0.12 0  0.9399999999999999 0.12 0  0.96 0.12 0  0.98 0.12 0  1 0.12 0  0 0.14 0  0.02 0.14 0  0.04 0.14 0  0.06 0.14 0  0.08 0.14 0  0.1 0.14 0  0.12 0.14 0  0.14 0.14 0  0.16 0.14 0  0.18 0.14 0  0.2 0.14 0  0.22 0.14 0  0.24 0.14 0  0.26 0.14 0  0.28 0.14 0  0.3 0.14 0  0.32 0.14 0  0.34 0.14 0  0.36 0.14 0  0.38 0.14 0  0.4 0.14 0  0.42 0.14 0  0.44 0.14 0  0.46 0.14 0  0.48 0.14 0  0.5 0.14 0  0.52 0.14 0  0.54 0.14 0  0.5600000000000001 0.14 0  0.58 0.14 0  0.6 0.14 0  0.62 0.14 0  0.64 0.14 0  0.66 0.14 0  0.68 0.14 0  0.7 0.14 0  0.72 0.14 0  0.74 0.14 0  0.76 0.14 0  0.78 0.14 0  0.8 0.14 0  0.82 0.14 0  0.84 0.14 0  0.86 0.14 0  0.88 0.14 0  0.9 0.14 0  0.92 0.14 0  0.9399999999999999 0.14 0  0.96 0.14 0  0.98 0.14 0  1 0.14 0  0 0.16 0  0.02 0.16 0  0.04 0.16 0  0.06 0.16 0  0.08 0.16 0  0.1 0.16 0  0.12 0.16 0  0.14 0.16 0  0.16 0.16 0  0.18 0.16 0  0.2 0.16 0  0.22 0.16 0  0.24 0.16 0  0.26 0.16 0  0.28 0.16 0  0.3 0.16 0  0.32 0.16 0  0.34 0.16 0  0.36 0.16 0  0.38 0.16 0  0.4 0.16 0  0.42 0.16 0  0.44 0.16 0  0.46 0.16 0  0.48 0.16 0  0.5 0.16 0  0.52 0.16 0  0.54 0.16 0  0.5600000000000001 0.16 0  0.58 0.16 0  0.6 0.16 0  0.62 0.16 0  0.64 0.16 0  0.66 0.16 0  0.68 0.16 0  0.7 0.16 0  0.72 0.16 0  0.74 0.16 0  0.76 0.16 0  0.78 0.16 0  0.8 0.16 0  0.82 0.16 0  0.84 0.16 0  0.86 0.16 0  0.88 0.16 0  0.9 0.16 0  0.92 0.16 0  0.9399999999999999 0.16 0  0.96 0.16 0  0.98 0.16 0  1 0.16 0  0 0.18 0  0.02 0.18 0  0.04 0.18 0  0.06 0.18 0  0.08 0.18 0  0.1 0.18 0  0.12 0.18 0  0.14 0.18 0  0.16 0.18 0  0.18 0.18 0  0.2 0.18 0  0.22 0.18 0  0.24 0.18 0  0.26 0.18 0  0.28 0.18 0  0.3 0.18 0  0.32 0.18 0  0.34 0.18 0  0.36 0.18 0  0.38 0.18 0  0.4 0.18 0  0.42 0.18 0  0.44 0.18 0  0.46 0.18 0  0.48 0.18 0  0.5 0.18 0  0.52 0.18 0  0.54 0.18 0  0.5600000000000001 0.18 0  0.58 0.18 0  0.6 0.18 0  0.62 0.18 0  0.64 0.18 0  0.66 0.18 0  0.68 0.18 0  0.7 0.18 0  0.72 0.18 0  0.74 0.18 0  0.76 0.18 0  0.78 0.18 0  0.8 0.18 0  0.82 0.18 0  0.84 0.18 0  0.86 0.18 0  0.88 0.18 0  0.9 0.18 0  0.92 0.18 0  0.9399999999999999 0.18 0  0.96 0.18 0  0.98 0.18 0  1 0.18 0  0 0.2 0  0.02 0.2 0  0.04 0.2 0  0.06 0.2 0  0.08 0.2 0  0.1 0.2 0  0.12 0.2 0  0.14 0.2 0  0.16 0.2 0  0.18 0.2 0  0.2 0.2 0  0.22 0.2 0  0.24 0.2 0  0.26 0.2 0  0.28 0.2 0  0.3 0.2 0  0.32 0.2 0  0.34 0.2 0  0.36 0.2 0  0.38 0.2 0  0.4 0.2 0  0.42 0.2 0  0.44 0.2 0  0.46 0.2 0  0.48 0.2 0  0.5 0.2 0  0.52 0.2 0  0.54 0.2 0  0.5600000000000001 0.2 0  0.58 0.2 0  0.6 0.2 0  0.62 0.2 0  0.64 0.2 0  0.66 0.2 0  0.68 0.2 0  0.7 0.2 0  0.72 0.2 0  0.74 0.2 0  0.76 0.2 0  0.78 0.2 0  0.8 0.2 0  0.82 0.2 0  0.84 0.2 0  0.86 0.2 0  0.88 0.2 0  0.9 0.2 0  0.92 0.2 0  0.9399999999999999 0.2 0  0.96 0.2 0  0.98 0.2 0  1 0.2 0  0 0.22 0  0.02 0.22 0  0.04 0.22 0  0.06 0.22 0  0.08 0.22 0  0.1 0.22 0  0.12 0.22 0  0.14 0.22 0  0.16 0.22 0  0.18 0.22 0  0.2 0.22 0  0.22 0.22 0  0.24 0.22 0  0.26 0.22 0  0.28 0.22 0  0.3 0.22 0  0.32 0.22 0  0.34 0.22 0  0.36 0.22 0  0.38 0.22 0  0.4 0.22 0  0.42 0.22 0  0.44 0.22 0  0.46 0.22 0  0.48 0.22 0  0.5 0.22 0  0.52 0.22 0  0.54 0.22 0  0.5600000000000001 0.22 0  0.58 0.22 0  0.6 0.22 0  0.62 0.22 0  0.64 0.22 0  0.66 0.22 0  0.68 0.22 0  0.7 0.22 0  0.72 0.22 0  0.74 0.22 0  0.76 0.22 0  0.78 0.22 0  0.8 0.22 0  0.82 0.22 0  0.84 0.22 0  0.86 0.22 0  0.88 0.22 0  0.9 0.22 0  0.92 0.22 0  0.9399999999999999 0.22 0  0.96 0.22 0  0.98 0.22 0  1 0.22 0  0 0.24 0  0.02 0.24 0  0.04 0.24 0  0.06 0.24 0  0.08 0.24 0  0.1 0.24 0  0.12 0.24 0  0.14 0.24 0  0.16 0.24 0  0.18 0.24 0  0.2 0.24 0  0.22 0.24 0  0.24 0.24 0  0.26 0.24 0  0.28 0.24 0  0.3 0.24 0  0.32 0.24 0  0.34 0.24 0  0.36 0.24 0  0.38 0.24 0  0.4 0.24 0  0.42 0.24 0  0.44 0.24 0  0.46 0.24 0  0.48 0.24 0  0.5 0.24 0  0.52 0.24 0  0.54 0.24 0  0.5600000000000001 0.24 0  0.58 0.24 0  0.6 0.24 0  0.62 0.24 0  0.64 0.24 0  0.66 0.24 0  0.68 0.24 0  0.7 0.24 0  0.72 0.24 0  0.74 0.24 0  0.76 0.24 0  0.78 0.24 0  0.8 0.24 0  0.82 0.24 0  0.84 0.24 0  0.86 0.24 0  0.88 0.24 0  0.9 0.24 0  0.92 0.24 0  0.9399999999999999 0.24 0  0.96 0.24 0  0.98 0.24 0  1 0.24 0  0 0.26 0  0.02 0.26 0  0.04 0.26 0  0.06 0.26 0  0.08 0.26 0  0.1 0.26 0  0.12 0.26 0  0.14 0.26 0  0.16 0.26 0  0.18 0.26 0  0.2 0.26 0  0.22 0.26 0  0.24 0.26 0  0.26 0.26 0  0.28 0.26 0  0.3 0.26 0  0.32 0.26 0  0.34 0.26 0  0.36 0.26 0  0.38 0.26 0  0.4 0.26 0  0.42 0.26 0  0.44 0.26 0  0.46 0.26 0  0.48 0.26 0  0.5 0.26 0  0.52 0.26 0  0.54 0.26 0  0.5600000000000001 0.26 0  0.58 0.26 0  0.6 0.26 0  0.62 0.26 0  0.64 0.26 0  0.66 0.26 0  0.68 0.26 0  0.7 0.26 0  0.72 0.26 0  0.74 0.26 0  0.76 0.26 0  0.78 0.26 0  0.8 0.26 0  0.82 0.26 0  0.84 0.26 0  0.86 0.26 0  0.88 0.26 0  0.9 0.26 0  0.92 0.26 0  0.9399999999999999 0.26 0  0.96 0.26 0  0.98 0.26 0  1 0.26 0  0 0.28 0  0.02 0.28 0  0.04 0.28 0  0.06 0.28 0  0.08 0.28 0  0.1 0.28 0  0.12 0.28 0  0.14 0.28 0  0.16 0.28 0  0.18 0.28 0  0.2 0.28 0  0.22 0.28 0  0.24 0.28 0  0.26 0.28 0  0.28 0.28 0  0.3 0.28 0  0.32 0.28 0  0.34 0.28 0  0.36 0.28 0  0.38 0.28 0  0.4 0.28 0  0.42 0.28 0  0.44 0.28 0  0.46 0.28 0  0.48 0.28 0  0.5 0.28 0  0.52 0.28 0  0.54 0.28 0  0.5600000000000001 0.28 0  0.58 0.28 0  0.6 0.28 0  0.62 0.28 0  0.64 0.28 0  0.66 0.28 0  0.68 0.28 0  0.7 0.28 0  0.72 0.28 0  0.74 0.28 0  0.76 0.28 0  0.78 0.28 0  0.8 0.28 0  0.82 0.28 0  0.84 0.28 0  0.86 0.28
[...]
<PointData  Scalars="f_8"> 
<DataArray  type="Float64"  Name="f_8"  format="ascii">-6.3634028070938264e-03  -3.4827679633240675e-02  -6.1030185382599328e-02  -8.5460285294379990e-02  -1.0849491393962982e-01  -1.3028653382151947e-01  -1.5089934691624959e-01  -1.7034989297008826e-01  -1.8862453532019516e-01  -2.0568927335146392e-01  -2.2149638226151264e-01  -2.3598961054005918e-01  -2.4910865259484677e-01  -2.6079316949528081e-01  -2.7098640912923294e-01  -2.7963836112834140e-01  -2.8670833012835201e-01  -2.9216680852208221e-01  -2.9599657027746218e-01  -2.9819298438022773e-01  -2.9876364945101030e-01  -2.9772755921016186e-01  -2.9511408692554997e-01  -2.9096209545243240e-01  -2.8531943825300093e-01  -2.7824303507319187e-01  -2.6979958527341130e-01  -2.6006681839451901e-01  -2.4913501457334550e-01  -2.3710842049053177e-01  -2.2410616333333977e-01  -2.1026231737416359e-01  -1.9572490008078472e-01  -1.8065374948435528e-01  -1.6521741775846771e-01  -1.4958936268872527e-01  -1.3394380678879042e-01  -1.1845166217809497e-01  -1.0327689818800624e-01  -8.8573675317600964e-02  -7.4484506685654067e-02  -6.1139663989525105e-02  -4.8658052656835399e-02  -3.7149890557839092e-02  -2.6721835452988101e-02  -1.7485957847436156e-02  -9.5758055106544629e-03  -3.1777055617009694e-03  1.3974143026590511e-03  3.5035200674904910e-03  1.2044273805981442e-03  -1.1411995250665668e-02  -3.4447032608050654e-02  -5.8336902754661253e-02  -8.0853075822011039e-02  -1.0213339962480683e-01  -1.2229065485878948e-01  -1.4137115240384968e-01  -1.5938620540724074e-01  -1.7632265664621666e-01  -1.9215014729579480e-01  -2.0682655802395225e-01  -2.2030252218627158e-01  -2.3252544212242557e-01  -2.4344316352046003e-01  -2.5300730272106853e-01  -2.6117612973029047e-01  -2.6791686710636309e-01  -2.7320726649595273e-01  -2.7703636819707733e-01  -2.7940443121690245e-01  -2.8032213501837910e-01  -2.7980928641409408e-01  -2.7789337039387652e-01  -2.7460830552388621e-01  -2.6999370861967747e-01  -2.6409489180436069e-01  -2.5696370513827088e-01  -2.4866014879595436e-01  -2.3925445632064302e-01  -2.2882921767699108e-01  -2.1748108231961732e-01  -2.0532162017692007e-01  -1.9247703711000777e-01  -1.7908664011984479e-01  -1.6530016268733433e-01  -1.5127422887030381e-01  -1.3716833475413151e-01  -1.2314076123779236e-01  -1.0934481290840918e-01  -9.5925719460493178e-02  -8.3018461353382797e-02  -7.0746715581432251e-02  -5.9223086527882121e-02  -4.8550820438228739e-02  -3.8827344032050216e-02  -3.0150295066382338e-02  -2.2627289725114488e-02  -1.6391024768993845e-02  -1.1624055184683783e-02  -8.5367284707842852e-03  -6.9505357098277685e-03  -1.8673910984867675e-02  -3.9817461797371868e-02  -6.2700005175897244e-02  -8.4757775339017724e-02  -1.0570639557080601e-01  -1.2560349758382650e-01  -1.4446573599091847e-01  -1.6229072225805499e-01  -1.7905875365372639e-01  -1.9473643497045684e-01  -2.0928062844116563e-01  -2.2264233252482091e-01  -2.3477046859888326e-01  -2.4561552615879559e-01  -2.5513294411548154e-01  -2.6328604439365311e-01  -2.7004830246645145e-01  -2.7540474902104672e-01  -2.7935235400111336e-01  -2.8189934859632088e-01  -2.8306358336421417e-01  -2.8287023170518383e-01  -2.8134935939279793e-01  -2.7853390157210173e-01  -2.7445843358885641e-01  -2.6915902447681489e-01  -2.6267443632595072e-01  -2.5504865083177081e-01  -2.4633423627570458e-01  -2.3659589910432408e-01  -2.2591360556100268e-01  -2.1438465227725301e-01  -2.0212418697162343e-01  -1.8926400300183829e-01  -1.7594976695451658e-01  -1.6233705873259346e-01  -1.4858671444466631e-01  -1.3485999653815717e-01  -1.2131407944225021e-01  -1.0809824577123886e-01  -9.5351069020562867e-02  -8.3198742499563230e-02  -7.1754620474213826e-02  -6.1119972180734242e-02  -5.1385895148466865e-02  -4.2636208582930171e-02  -3.4950547679026001e-02  -2.8403940006744864e-02  -2.3058978468403497e-02  -1.8825234378191065e-02  -1.5127587139073586e-02  -2.6551163647771769e-02  -4.5994339943695201e-02  -6.7850033398143425e-02  -8.9209961607036301e-02  -1.0960644321583742e-01  -1.2905122193181812e-01  -1.4753029839616308e-01  -1.6502324801730825e-01  -1.8149949288380354e-01  -1.9691879975783286e-01  -2.1123368944494850e-01  -2.2439263369047463e-01  -2.3634364318312481e-01  -2.4703799272544366e-01  -2.5643382059706715e-01  -2.6449929384317672e-01  -2.7121500118677594e-01  -2.7657524189743499e-01  -2.8058796351171095e-01  -2.8327324660636971e-01  -2.8466034811274826e-01  -2.8478367527280646e-01  -2.8367861411393458e-01  -2.8137823353428704e-01  -2.7791123061057871e-01  -2.7330130481329923e-01  -2.6756874183500345e-01  -2.6073455348228608e-01  -2.5282604311600543e-01  -2.4388257672137076e-01  -2.3396102507733554e-01  -2.2313981238114211e-01  -2.1152060420076757e-01  -1.9922738360876738e-01  -1.8640325573591568e-01  -1.7320558066779099e-01  -1.5980011406740757e-01  -1.4635487591786378e-01  -1.3303440292376290e-01  -1.1999487464169019e-01  -1.0738040821452963e-01  -9.5320626897148458e-02  -8.3929440857162488e-02  -7.3304827458099853e-02  -6.3529212985273920e-02  -5.4669710317810684e-02  -4.6776523273412939e-02  -3.9874762199226449e-02  -3.3953391877791339e-02  -2.8775807408254375e-02  -2.3593657146169907e-02  -3.4983689450598265e-02  -5.2943865376526490e-02  -7.3878695598156713e-02  -9.4563309597725020e-02  -1.1439784560805819e-01  -1.3337634444898544e-01  -1.5146294723651932e-01  -1.6862106045597061e-01  -1.8480806900235797e-01  -1.9997454045772373e-01  -2.1406582559858864e-01  -2.2702494078066038e-01  -2.3879624139565156e-01  -2.4932952317874263e-01  -2.5858416970683329e-01  -2.6653288817334875e-01  -2.7316453797746548e-01  -2.7848546393142326e-01  -2.8251896502538276e-01  -2.8530278131284642e-01  -2.8688431851598029e-01  -2.8731358426540371e-01  -2.8663582017265282e-01  -2.8488656127417461e-01  -2.8208853106002563e-01  -2.7824958075173367e-01  -2.7336412969791773e-01  -2.6742053380538477e-01  -2.6041060098034119e-01  -2.5233804249453512e-01  -2.4322789596510547e-01  -2.3313390450164584e-01  -2.2214187591390025e-01  -2.1036876759949744e-01  -1.9795850071845575e-01  -1.8507547639961666e-01  -1.7189667150905694e-01  -1.5860339522778591e-01  -1.4537365813706649e-01  -1.3237577851648247e-01  -1.1976354821950043e-01  -1.0767299019008979e-01  -9.6220500677608761e-02  -8.5501976975634358e-02  -7.5592329728083177e-02  -6.6544477357481271e-02  -5.8386231827952877e-02  -5.1111339250132261e-02  -4.4677967492033850e-02  -3.8773232559838160e-02  -3.2475218810144486e-02  -4.3965817461495020e-02  -6.0580898894960121e-02  -8.0672879748090204e-02  -1.0071484034339363e-01  -1.1999632254017689e-01  -1.3850779524351936e-01  -1.5619971588053733e-01  -1.7302239501683325e-01  -1.8892122014063945e-01  -2.0383589239674413e-01  -2.1770198901314969e-01  -2.3045402413084196e-01  -2.4202962303144560e-01  -2.5237443617696492e-01  -2.6144734196048997e-01  -2.6922527407559932e-01  -2.7570706182709048e-01  -2.8091508421608546e-01  -2.8489445163473026e-01  -2.8770898842545911e-01  -2.8943452050733731e-01  -2.9014819500444783e-01  -2.8991169124835370e-01  -2.8876654660743561e-01  -2.8673118506323181e-01  -2.8379410271836936e-01  -2.7991162107184775e-01  -2.7502356220952090e-01  -2.6907383663103923e-01  -2.6201293299123135e-01  -2.5382046974721795e-01  -2.4451709025051555e-01  -2.3416947338743999e-01  -2.2288883932439307e-01  -2.1082467451771839e-01  -1.9815588299284101e-01  -1.8507944095794140e-01  -1.7179885371273285e-01  -1.5851379605180471e-01  -1.4541165796913319e-01  -1.3266137296108590e-01  -1.2040943242010473e-01  -1.0877768047061710e-01  -9.7862309573630124e-02  -8.7733344651946113e-02  -7.8433765441007330e-02  -6.9977066826433496e-02  -6.2340468310287722e-02  -5.5474403135467046e-02  -4.9011899761388318e-02  -4.1829724690759768e-02  -5.3496868454166249e-02  -6.8860361813892310e-02  -8.8164069634495870e-02  -1.0759484200367431e-01  -1.2634130275260116e-01  -1.4439603898701753e-01  -1.6170050927808483e-01  -1.7819408313749718e-01  -1.9381008072388559e-01  -2.0847560068976587e-01  -2.2211354221611759e-01  -2.3464628158142881e-01  -2.4600081038550392e-01  -2.5611502107055145e-01  -2.6494469437764900e-01  -2.7247011962022066e-01  -2.7870205259093395e-01  -2.8368268875382896e-01  -2.8749002375650851e-01  -2.9022356839948166e-01  -2.9200267730281942e-01  -2.9295713797258388e-01  -2.9317475426739853e-01  -2.9271410294222711e-01  -2.9157343389500184e-01  -2.8973401486927464e-01  -2.8709981267936346e-01  -2.8352146312199217e-01  -2.7888493214119847e-01  -2.7305619168395728e-01  -2.6595804398248851e-01  -2.5755862550350145e-01  -2.4790391754966767e-01  -2.3710201275183110e-01  -2.2531500937105420e-01  -2.1274771351497732e-01  -1.9962974580062984e-01  -1.8619925520515884e-01  -1.7268870054052252e-01  -1.5931363064590731e-01  -1.4626506789351645e-01  -1.3370502329479939e-01  -1.2176440470104270e-01  -1.1054252171061346e-01  -1.0010736555938658e-01  -9.0495867851937459e-02  -8.1713208083167468e-02  -7.3728742266750774e-02  -6.6494831914474570e-02  -5.9595765900193831e-02  -5.1685338941613791e-02  -6.3575805889436593e-02  -7.7754805068559127e-02  -9.6307384751790362e-02  -1.1515293102037442e-01  -1.3338489307736398e-01  -1.5099948854846709e-01  -1.6793107675246510e-01  -1.8410877653849256e-01  -1.9945297607343532e-01  -2.1387578036425889e-01  -2.2728368039552629e-01  -2.3958214338358164e-01  -2.5068215338386823e-01  -2.6050844301273385e-01  -2.6900935215614308e-01  -2.7616471727562730e-01  -2.8199898752138663e-01  -2.8658072756772085e-01  -2.9005471729618587e-01  -2.9254420088598410e-01  -2.9416985883434504e-01  -2.9542866340974028e-01  -2.9634138953108563e-01  -2.9662200584368625e-01  -2.9644013799553837e-01  -2.9593367277714988e-01  -2.9482224530405154e-01  -2.9275615965997437e-01  -2.8995125173358871e-01  -2.8577381373969496e-01  -2.7991691945081310e-01  -2.7262970566952510e-01  -2.6374337193991904e-01  -2.5341746380899910e-01  -2.4182601268262549e-01  -2.2922158367392348e-01  -2.1588403469278392e-01  -2.0210368537342333e-01  -1.8816088067394388e-01  -1.7431092878119292e-01  -1.6077533877383204e-01  -1.4773737584007010e-01  -1.3534074952542363e-01  -1.2369039844950229e-01  -1.1285437050554217e-01  -1.0286595000475146e-01  -9.3725169036250583e-02  -8.5397220220594552e-02  -7.7838925110438356e-02  -7.0586129455355279e-02  -6.2056775867799736e-02  -7.4198656649852979e-02  -8.7243959083886352e-02  -1.0507057577796630e-01  -1.2335182903912263e-01  -1.4109067617821150e-01  -1.5828657425565373e-01  -1.7486695996344176e-01  -1.9075013665502832e-01  -2.0584173353672316e-01  -2.2003550318188078e-01  -2.3321655880544873e-01  -2.4526696937243161e-01  -2.5607396036582919e-01  -2.6554048750592918e-01  -2.7359845929530435e-01  -2.8022409857369884e-01  -2.8547890773247603e-01  -2.8934215656315143e-01  -2.9249510779236282e-01  -2.9476096293675835e-01  -2.9571515669219584e-01  -2.9709120374781739e-01  -2.9879786970872269e-01  -2.9968430961743625e-01  -3.0030612226482600e-01  -3.0049114337378202e-01  -3.0036916291696331e-01  -3.0010072962198492e-01  -2.9949579510837676e-01  -2.9892646199625894e-01  -2.9629700208103499e-01  -2.9003059606499543e-01  -2.8225952011874689e-01  -2.7236572676199478e-01  -2.6086342347891661e-01  -2.4803987664025962e-01  -2.3424886392221977e-01  -2.1986167027132481e-01  -2.0522668559914056e-01  -1.9065312182140931e-01  -1.7640258038832149e-01  -1.6268551766796985e-01  -1.4966163175958949e-01  -1.3744292398314437e-01  -1.2609808140408965e-01  -1.1565712613379885e-01  -1.0611539642951955e-01  -9.7434155813832371e-02  -8.9573546971457627e-02  -8.2020058949633962e-02  -7.2949816440313148e-02  -8.5356933435274271e-02  -9.7309454588354563e-02  -1.1442768796371820e-01  -1.3216252955252433e-01  -1.4943115997951315e-01  -1.6623517245190306e-01  -1.8249439418011468e-01  -1.9811493398575469e-01  -2.1298501762739838e-01  -2.2697565553979593e-01  -2.3994406574268903e-01  -2.5173992034280440e-01  -2.6221511215080062e-01  -2.7123709451270778e-01  -2.7872621002836828e-01  -2.8455995740622403e-01  -2.8923608924133121e-01  -2.9256096232330248e-01  -2.9439742210847775e-01  -2.9733856508047624e-01  -2.9918468657914121e-01  -3.0064086681632401e-01  -3.0209807263320237e-01  -3.0313747962228715e-01  -3.0385850042366286e-01  -3.0427984423041810e-01  -3.0444632291014273e-01  -3.0439102324910799e-01  -3.0412318668704169e-01  -3.0367842332126666e-01  -3.0319865725486178e-01  -3.0226537011074073e-01  -3.0197931456122579e-01  -2.9465472541219884e-01  -2.8312016680683133e-01  -2.6978299989843235e-01  -2.5521291349627417e-01  -2.3987825679766231e-01  -2.2421695259352339e-01  -2.0860782060805447e-01  -1.9336292861750212e-01  -1.7872533872771817e-01  -1.6487242999789622e-01  -1.5192271137404664e-01  -1.3994388026524113e-01  -1.2896071935342249e-01  -1.1896182167787897e-01  -1.0990224505878320e-01  -1.0174222181251755e-01  -9.3917826851776548e-02  -8.4362400137998297e-02  -9.7036423418510667e-02  -1.0793172639863248e-01  -1.2435516625217304e-01  -1.4156085312452879e-01  -1.5838544818377873e-01  -1.7483154616470423e-01  -1.9081048052876129e-01  -2.0621449413272894e-01  -2.2091130322538610e-01  -2.3474391509226258e-01  -2.4753345338836338e-01  -2.5908515491139317e-01  -2.6920018535707491e-01  -2.7772213873884366e-01  -2.8439203295934340e-01  -2.8991720219128403e-01  -2.9314530097086067e-01  -2.9643062720443680e-01  -2.9862675599823651e-01  -3.0106819153275316e-01  -3.0306188102813741e-01  -3.0473307177975179e-01  -3.0610965936023604e-01  -3.0719568737170344e-01  -3.0801006742936859e-01  -3.0857201290909603e-01  -3.0890762772862562e-01  -3.0904638674469131e-01  -3.0901471096284472e-01  -3.0883947463388595e-01  -3.0854966838577913e-01  -3.0819417726578030e-01  -3.0777718001027232e-01  -3.0736139497708226e-01  -3.0700338096684748e-01  -2.9510402010459813e-01  -2.7934643601363085e-01  -2.6261547988533673e-01  -2.4549431154195561e-01  -2.2845499238957617e-01  -2.1187128177728162e-01  -1.9602271050497172e-01  -1.8110302856309249e-01  -1.6723346687602325e-01  -1.5447607188983820e-01  -1.4284565918155687e-01  -1.3231957550076648e-01  -1.2284234205507470e-01  -1.1436959208825462e-01  -1.0628595577264677e-01  -9.6284612885240969e-02  -1.0921613835206860e-01  -1.1908786955595926e-01  -1.3482911256456204e-01  -1.5152471102353104e-01  -1.6793694265938425e-01  -1.8406872671043070e-01  -1.9982240986620020e-01  -2.1507499992840412e-01  -2.2967068803892882e-01  -2.4341889102718015e-01  -2.5609527020458051e-01  -2.6744524868016206e-01  -2.7719891316092787e-01  -2.8519305524314570e-01  -2.9153151658400561e-01  -2.9548539714596722e-01  -2.9814523329068199e-01  -3.0095845498839091e-01  -3.0346015503238266e-01  -3.0566470991117572e-01  -3.0757969479918174e-01  -3.0920649534829836e-01  -3.1056652732849438e-01  -3.1167584725053182e-01  -3.1255311376175854e-01  -3.1321753432169652e-01  -3.1369153447145331e-01  -3.1399969450228660e-01  -3.1416716322545291e-01  -3.1422024903132550e-01  -3.1418768698724941e-01  -3.1410049528369827e-01  -3.1398982414701421e-01  -3.1388862166002879e-01  -3.1383769293250119e-01  -3.1383497914458691e-01  -3.0754006563066294e-01  -2.8860614353756758e-01  -2.6944603231093833e-01  -2.5047524476112537e-01  -2.3212933543713143e-01  -2.1472300456276003e-01  -1.9845939491622067e-01  -1.8345376727547674e-01  -1.6975385744516056e-01  -1.5735656597431094e-01  -1.4622095119148865e-01  -1.3627477730867094e-01  -1.2746316427212834e-01  -1.1911822415649535e-01  -1.0869822903865918e-01  -1.2186736958538692e-01  -1.3074992010969952e-01  -1.4582302530630728e-01  -1.6203158267922516e-01  -1.7807079347889446e-01  -1.9394412322470789e-01  -2.0954542847441138e-01  -2.2473613978944279e-01  -2.3933478333357319e-01  -2.5311324352683923e-01  -2.6578981218955933e-01  -2.7702337375968694e-01  -2.8653702025254912e-01  -2.9444479864888395e-01  -2.9814881203125604e-01  -3.0088230083028905e-01  -3.0381790900924432e-01  -3.0637791855887664e-01  -3.0868966428125638e-01  -3.1073580743758111e-01  -3.1253018416161277e-01  -3.1408357479366872e-01  -3.1541037485041878e-01  -3.1652581878379571e-01  -3.1744635390901393e-01  -3.1819000681392728e-01  -3.1877684710746740e-01  -3.1922868099636414e-01  -3.1956861886921972e-01  -3.1982111215801240e-01  -3.2001219256682478e-01  -3.2016921471434179e-01  -3.2031982578684592e-01  -3.2049149259336435e-01  -3.2071205894578886e-01  -3.2100812490193403e-01  -3.2146513393083287e-01  -3.1845727662417456e-01  -2.9649406181426030e-01  -2.7492683258444905e-01  -2.5430634300650840e-01  -2.3493611633457409e-01  -2.1701225999636692e-01  -2.0062890817708731e-01  -1.8580590496628410e-01  -1.7251059605525054e-01  -1.6067402845764731e-01  -1.5019916101629957e-01  -1.4101357331921466e-01  -1.3239567401955249e-01  -1.2157608435885278e-01  -1.3495285222270453e-01  -1.4288333660852634e-01  -1.5730568731143682e-01  -1.7305589658917392e-01  -1.8877084173792427e-01  -2.0445610050019999e-01  -2.1999918431929893e-01  -2.3524756191559396e-01  -2.4999480336704982e-01  -2.6396902560965746e-01  -2.7681280771111960e-01  -2.8810096074987734e-01  -2.9809660526824161e-01  -3.0176692539534650e-01  -3.0454437764223941e-01  -3.0737540150253528e-01  -3.0991826378330661e-01  -3.1223639370100198e-01  -3.1432918790610109e-01  -3.1620331824975212e-01  -3.1786830741795691e-01  -3.1933394158019079e-01  -3.2061200464489126e-01  -3.2171587313842465e-01  -3.2266041654554328e-01  -3.2346204815804175e-01  -3.2413882254591181e-01  -3.2471034103276408e-01  -3.2519759771139334e-01  -3.2562290144345818e-01  -3.2600981417045005e-01  -3.2638292965143378e-01  -3.2676751268669280e-01  -3.2718928196873587e-01  -3.2767463679140540e-01  -3.2825092593933131e-01  -3.2894294885906483e-01  -3.2989657045157444e-01  -3.2709076647011343e-01  -3.0205434816672094e-01  -2.7851344919324633e-01  -2.5671697293557066e-01  -2.3678297389604402e-01  -2.1876098087673218e-01  -2.0262376087620312e-01  -1.8829340217626025e-01  -1.7566046893438572e-01  -1.6459335045904736e-01  -1.5499410355923479e-01  -1.4608617085513320e-01  -1.3488143483462778e-01  -1.4842607374903391e-01  -1.5544560453545586e-01  -1.6923905559056113e-01  -1.8456615142891364e-01  -2.0001587746040694e-01  -2.1559924625458976e-01  -2.3120185402906407e-01  -2.4666170918281666e-01  -2.6174964254118710e-01  -2.7615067059380122e-01  -2.8936461472784492e-01  -3.0171759273932913e-01  -3.0655448357040488e-01  -3.0910716287536000e-01  -3.1176147237755431e-01  -3.1418606596400317e-01  -3.1642303790245224e-01  -3.1847329745656006e-01  -3.2034237229755064e-01  -3.2203565748218549e-01  -3.2356032920472783e-01  -3.2492487304527390e-01  -3.2613939701986377e-01  -3.2721556594422163e-01  -3.2816655247866189e-01  -3.2900702815650951e-01  -3.2975316109715075e-01  -3.3042256051211510e-01  -3.3103418429140574e-01  -3.3160824068451134e-01  -3.3216606922442848e-01  -3.3272996153926615e-01  -3.3332293946928904e-01  -3.3396856355190735e-01  -3.3469073196233173e-01  -3.3551311849557780e-01  -3.3645853774775791e-01  -3.3754331794396886e-01  -3.3886986637185762e-01  -3.3167878351962815e-01  -3.0480686920412137e-01  -2.8004376328177877e-01  -2.5772706599994688e-01  -2.3779772326588197e-01  -2.2015467612163686e-01  -2.0465478810271190e-01  -1.9113306685398834e-01  -1.7941216186744349e-01  -1.6935998519509177e-01  -1.6014386821509663e-01  -1.4856741402251625e-01  -1.6223078134905014e-01  -1.6838497324107801e-01  -1.8157613714812346e-01  -1.9652176036386362e-01  -2.1177520496864660e-01  -2.2735836973382156e-01  -2.4316242198094548e-01  -2.5902583222044701e-01  -2.7470631671658507e-01  -2.8982836639374354e-01  -3.0426834424677685e-01  -3.1271730528990088e-01  -3.1467615149563954e-01  -3.1708516618871302e-01  -3.1929100263247179e-01  -3.2135678351810426e-01  -3.2327703970746613e-01  -3.2505516960923808e-01  -3.2669401145869670e-01  -3.2819780342805455e-01  -3.2957213086579484e-01  -3.3082401995512856e-01  -3.3196198891201323e-01  -3.3299604325664367e-01  -3.3393766173619427e-01  -3.3479977766046992e-01  -3.3559675108159409e-01  -3.3634431709481000e-01  -3.3705950954272473e-01  -3.3776056499824314e-01  -3.3846680257917439e-01  -3.3919847082591154e