<?xml version="1.0"?>
<VTKFile type="UnstructuredGrid"  version="0.1"  >
<UnstructuredGrid>
<Piece  NumberOfPoints="2601" NumberOfCells="5000">
<Points>
<DataArray  type="Float64"  NumberOfComponents="3"  format="ascii">0 0 0  0.02 0 0  0.04 0 0  0.06 0 0  0.08 0 0  0.1 0 0  0.12 0 0  0.14 0 0  0.16 0 0  0.18 0 0  0.2 0 0  0.22 0 0  0.24 0 0  0.26 0 0  0.28 0 0  0.3 0 0  0.32 0 0  0.34 0 0  0.36 0 0  0.38 0 0  0.4 0 0  0.42 0 0  0.44 0 0  0.46 0 0  0.48 0 0  0.5 0 0  0.52 0 0  0.54 0 0  0.5600000000000001 0 0  0.58 0 0  0.6 0 0  0.62 0 0  0.64 0 0  0.66 0 0  0.68 0 0  0.7 0 0  0.72 0 0  0.74 0 0  0.76 0 0  0.78 0 0  0.8 0 0  0.82 0 0  0.84 0 0  0.86 0 0  0.88 0 0  0.9 0 0  0.92 0 0  0.9399999999999999 0 0  0.96 0 0  0.98 0 0  1 0 0  0 0.02 0  0.02 0.02 0  0.04 0.02 0  0.06 0.02 0  0.08 0.02 0  0.1 0.02 0  0.12 0.02 0  0.14 0.02 0  0.16 0.02 0  0.18 0.02 0  0.2 0.02 0  0.22 0.02 0  0.24 0.02 0  0.26 0.02 0  0.28 0.02 0  0.3 0.02 0  0.32 0.02 0  0.34 0.02 0  0.36 0.02 0  0.38 0.02 0  0.4 0.02 0  0.42 0.02 0  0.44 0.02 0  0.46 0.02 0  0.48 0.02 0  0.5 0.02 0  0.52 0.02 0  0.54 0.02 0  0.5600000000000001 0.02 0  0.58 0.02 0  0.6 0.02 0  0.62 0.02 0  0.64 0.02 0  0.66 0.02 0  0.68 0.02 0  0.7 0.02 0  0.72 0.02 0  0.74 0.02 0  0.76 0.02 0  0.78 0.02 0  0.8 0.02 0  0.82 0.02 0  0.84 0.02 0  0.86 0.02 0  0.88 0.02 0  0.9 0.02 0  0.92 0.02 0  0.9399999999999999 0.02 0  0.96 0.02 0  0.98 0.02 0  1 0.02 0  0 0.04 0  0.02 0.04 0  0.04 0.04 0  0.06 0.04 0  0.08 0.04 0  0.1 0.04 0  0.12 0.04 0  0.14 0.04 0  0.16 0.04 0  0.18 0.04 0  0.2 0.04 0  0.22 0.04 0  0.24 0.04 0  0.26 0.04 0  0.28 0.04 0  0.3 0.04 0  0.32 0.04 0  0.34 0.04 0  0.36 0.04 0  0.38 0.04 0  0.4 0.04 0  0.42 0.04 0  0.44 0.04 0  0.46 0.04 0  0.48 0.04 0  0.5 0.04 0  0.52 0.04 0  0.54 0.04 0  0.5600000000000001 0.04 0  0.58 0.04 0  0.6 0.04 0  0.62 0.04 0  0.64 0.04 0  0.66 0.04 0  0.68 0.04 0  0.7 0.04 0  0.72 0.04 0  0.74 0.04 0  0.76 0.04 0  0.78 0.04 0  0.8 0.04 0  0.82 0.04 0  0.84 0.04 0  0.86 0.04 0  0.88 0.04 0  0.9 0.04 0  0.92 0.04 0  0.9399999999999999 0.04 0  0.96 0.04 0  0.98 0.04 0  1 0.04 0  0 0.06 0  0.02 0.06 0  0.04 0.06 0  0.06 0.06 0  0.08 0.06 0  0.1 0.06 0  0.12 0.06 0  0.14 0.06 0  0.16 0.06 0  0.18 0.06 0  0.2 0.06 0  0.22 0.06 0  0.24 0.06 0  0.26 0.06 0  0.28 0.06 0  0.3 0.06 0  0.32 0.06 0  0.34 0.06 0  0.36 0.06 0  0.38 0.06 0  0.4 0.06 0  0.42 0.06 0  0.44 0.06 0  0.46 0.06 0  0.48 0.06 0  0.5 0.06 0  0.52 0.06 0  0.54 0.06 0  0.5600000000000001 0.06 0  0.58 0.06 0  0.6 0.06 0  0.62 0.06 0  0.64 0.06 0  0.66 0.06 0  0.68 0.06 0  0.7 0.06 0  0.72 0.06 0  0.74 0.06 0  0.76 0.06 0  0.78 0.06 0  0.8 0.06 0  0.82 0.06 0  0.84 0.06 0  0.86 0.06 0  0.88 0.06 0  0.9 0.06 0  0.92 0.06 0  0.9399999999999999 0.06 0  0.96 0.06 0  0.98 0.06 0  1 0.06 0  0 0.08 0  0.02 0.08 0  0.04 0.08 0  0.06 0.08 0  0.08 0.08 0  0.1 0.08 0  0.12 0.08 0  0.14 0.08 0  0.16 0.08 0  0.18 0.08 0  0.2 0.08 0  0.22 0.08 0  0.24 0.08 0  0.26 0.08 0  0.28 0.08 0  0.3 0.08 0  0.32 0.08 0  0.34 0.08 0  0.36 0.08 0  0.38 0.08 0  0.4 0.08 0  0.42 0.08 0  0.44 0.08 0  0.46 0.08 0  0.48 0.08 0  0.5 0.08 0  0.52 0.08 0  0.54 0.08 0  0.5600000000000001 0.08 0  0.58 0.08 0  0.6 0.08 0  0.62 0.08 0  0.64 0.08 0  0.66 0.08 0  0.68 0.08 0  0.7 0.08 0  0.72 0.08 0  0.74 0.08 0  0.76 0.08 0  0.78 0.08 0  0.8 0.08 0  0.82 0.08 0  0.84 0.08 0  0.86 0.08 0  0.88 0.08 0  0.9 0.08 0  0.92 0.08 0  0.9399999999999999 0.08 0  0.96 0.08 0  0.98 0.08 0  1 0.08 0  0 0.1 0  0.02 0.1 0  0.04 0.1 0  0.06 0.1 0  0.08 0.1 0  0.1 0.1 0  0.12 0.1 0  0.14 0.1 0  0.16 0.1 0  0.18 0.1 0  0.2 0.1 0  0.22 0.1 0  0.24 0.1 0  0.26 0.1 0  0.28 0.1 0  0.3 0.1 0  0.32 0.1 0  0.34 0.1 0  0.36 0.1 0  0.38 0.1 0  0.4 0.1 0  0.42 0.1 0  0.44 0.1 0  0.46 0.1 0  0.48 0.1 0  0.5 0.1 0  0.52 0.1 0  0.54 0.1 0  0.5600000000000001 0.1 0  0.58 0.1 0  0.6 0.1 0  0.62 0.1 0  0.64 0.1 0  0.66 0.1 0  0.68 0.1 0  0.7 0.1 0  0.72 0.1 0  0.74 0.1 0  0.76 0.1 0  0.78 0.1 0  0.8 0.1 0  0.82 0.1 0  0.84 0.1 0  0.86 0.1 0  0.88 0.1 0  0.9 0.1 0  0.92 0.1 0  0.9399999999999999 0.1 0  0.96 0.1 0  0.98 0.1 0  1 0.1 0  0 0.12 0  0.02 0.12 0  0.04 0.12 0  0.06 0.12 0  0.08 0.12 0  0.1 0.12 0  0.12 0.12 0  0.14 0.12 0  0.16 0.12 0  0.18 0.12 0  0.2 0.12 0  0.22 0.12 0  0.24 0.12 0  0.26 0.12 0  0.28 0.12 0  0.3 0.12 0  0.32 0.12 0  0.34 0.12 0  0.36 0.12 0  0.38 0.12 0  0.4 0.12 0  0.42 0.12 0  0.44 0.12 0  0.46 0.12 0  0.48 0.12 0  0.5 0.12 0  0.52 0.12 0  0.54 0.12 0  0.5600000000000001 0.12 0  0.58 0.12 0  0.6 0.12 0  0.62 0.12 0  0.64 0.12 0  0.66 0.12 0  0.68 0.12 0  0.7 0.12 0  0.72 0.12 0  0.74 0.12 0  0.76 0.12 0  0.78 0.12 0  0.8 0.12 0  0.82 0.12 0  0.84 0.12 0  0.86 0.12 0  0.88 0.12 0  0.9 0.12 0  0.92 0.12 0  0.9399999999999999 0.12 0  0.96 0.12 0  0.98 0.12 0  1 0.12 0  0 0.14 0  0.02 0.14 0  0.04 0.14 0  0.06 0.14 0  0.08 0.14 0  0.1 0.14 0  0.12 0.14 0  0.14 0.14 0  0.16 0.14 0  0.18 0.14 0  0.2 0.14 0  0.22 0.14 0  0.24 0.14 0  0.26 0.14 0  0.28 0.14 0  0.3 0.14 0  0.32 0.14 0  0.34 0.14 0  0.36 0.14 0  0.38 0.14 0  0.4 0.14 0  0.42 0.14 0  0.44 0.14 0  0.46 0.14 0  0.48 0.14 0  0.5 0.14 0  0.52 0.14 0  0.54 0.14 0  0.5600000000000001 0.14 0  0.58 0.14 0  0.6 0.14 0  0.62 0.14 0  0.64 0.14 0  0.66 0.14 0  0.68 0.14 0  0.7 0.14 0  0.72 0.14 0  0.74 0.14 0  0.76 0.14 0  0.78 0.14 0  0.8 0.14 0  0.82 0.14 0  0.84 0.14 0  0.86 0.14 0  0.88 0.14 0  0.9 0.14 0  0.92 0.14 0  0.9399999999999999 0.14 0  0.96 0.14 0  0.98 0.14 0  1 0.14 0  0 0.16 0  0.02 0.16 0  0.04 0.16 0  0.06 0.16 0  0.08 0.16 0  0.1 0.16 0  0.12 0.16 0  0.14 0.16 0  0.16 0.16 0  0.18 0.16 0  0.2 0.16 0  0.22 0.16 0  0.24 0.16 0  0.26 0.16 0  0.28 0.16 0  0.3 0.16 0  0.32 0.16 0  0.34 0.16 0  0.36 0.16 0  0.38 0.16 0  0.4 0.16 0  0.42 0.16 0  0.44 0.16 0  0.46 0.16 0  0.48 0.16 0  0.5 0.16 0  0.52 0.16 0  0.54 0.16 0  0.5600000000000001 0.16 0  0.58 0.16 0  0.6 0.16 0  0.62 0.16 0  0.64 0.16 0  0.66 0.16 0  0.68 0.16 0  0.7 0.16 0  0.72 0.16 0  0.74 0.16 0  0.76 0.16 0  0.78 0.16 0  0.8 0.16 0  0.82 0.16 0  0.84 0.16 0  0.86 0.16 0  0.88 0.16 0  0.9 0.16 0  0.92 0.16 0  0.9399999999999999 0.16 0  0.96 0.16 0  0.98 0.16 0  1 0.16 0  0 0.18 0  0.02 0.18 0  0.04 0.18 0  0.06 0.18 0  0.08 0.18 0  0.1 0.18 0  0.12 0.18 0  0.14 0.18 0  0.16 0.18 0  0.18 0.18 0  0.2 0.18 0  0.22 0.18 0  0.24 0.18 0  0.26 0.18 0  0.28 0.18 0  0.3 0.18 0  0.32 0.18 0  0.34 0.18 0  0.36 0.18 0  0.38 0.18 0  0.4 0.18 0  0.42 0.18 0  0.44 0.18 0  0.46 0.18 0  0.48 0.18 0  0.5 0.18 0  0.52 0.18 0  0.54 0.18 0  0.5600000000000001 0.18 0  0.58 0.18 0  0.6 0.18 0  0.62 0.18 0  0.64 0.18 0  0.66 0.18 0  0.68 0.18 0  0.7 0.18 0  0.72 0.18 0  0.74 0.18 0  0.76 0.18 0  0.78 0.18 0  0.8 0.18 0  0.82 0.18 0  0.84 0.18 0  0.86 0.18 0  0.88 0.18 0  0.9 0.18 0  0.92 0.18 0  0.9399999999999999 0.18 0  0.96 0.18 0  0.98 0.18 0  1 0.18 0  0 0.2 0  0.02 0.2 0  0.04 0.2 0  0.06 0.2 0  0.08 0.2 0  0.1 0.2 0  0.12 0.2 0  0.14 0.2 0  0.16 0.2 0  0.18 0.2 0  0.2 0.2 0  0.22 0.2 0  0.24 0.2 0  0.26 0.2 0  0.28 0.2 0  0.3 0.2 0  0.32 0.2 0  0.34 0.2 0  0.36 0.2 0  0.38 0.2 0  0.4 0.2 0  0.42 0.2 0  0.44 0.2 0  0.46 0.2 0  0.48 0.2 0  0.5 0.2 0  0.52 0.2 0  0.54 0.2 0  0.5600000000000001 0.2 0  0.58 0.2 0  0.6 0.2 0  0.62 0.2 0  0.64 0.2 0  0.66 0.2 0  0.68 0.2 0  0.7 0.2 0  0.72 0.2 0  0.74 0.2 0  0.76 0.2 0  0.78 0.2 0  0.8 0.2 0  0.82 0.2 0  0.84 0.2 0  0.86 0.2 0  0.88 0.2 0  0.9 0.2 0  0.92 0.2 0  0.9399999999999999 0.2 0  0.96 0.2 0  0.98 0.2 0  1 0.2 0  0 0.22 0  0.02 0.22 0  0.04 0.22 0  0.06 0.22 0  0.08 0.22 0  0.1 0.22 0  0.12 0.22 0  0.14 0.22 0  0.16 0.22 0  0.18 0.22 0  0.2 0.22 0  0.22 0.22 0  0.24 0.22 0  0.26 0.22 0  0.28 0.22 0  0.3 0.22 0  0.32 0.22 0  0.34 0.22 0  0.36 0.22 0  0.38 0.22 0  0.4 0.22 0  0.42 0.22 0  0.44 0.22 0  0.46 0.22 0  0.48 0.22 0  0.5 0.22 0  0.52 0.22 0  0.54 0.22 0  0.5600000000000001 0.22 0  0.58 0.22 0  0.6 0.22 0  0.62 0.22 0  0.64 0.22 0  0.66 0.22 0  0.68 0.22 0  0.7 0.22 0  0.72 0.22 0  0.74 0.22 0  0.76 0.22 0  0.78 0.22 0  0.8 0.22 0  0.82 0.22 0  0.84 0.22 0  0.86 0.22 0  0.88 0.22 0  0.9 0.22 0  0.92 0.22 0  0.9399999999999999 0.22 0  0.96 0.22 0  0.98 0.22 0  1 0.22 0  0 0.24 0  0.02 0.24 0  0.04 0.24 0  0.06 0.24 0  0.08 0.24 0  0.1 0.24 0  0.12 0.24 0  0.14 0.24 0  0.16 0.24 0  0.18 0.24 0  0.2 0.24 0  0.22 0.24 0  0.24 0.24 0  0.26 0.24 0  0.28 0.24 0  0.3 0.24 0  0.32 0.24 0  0.34 0.24 0  0.36 0.24 0  0.38 0.24 0  0.4 0.24 0  0.42 0.24 0  0.44 0.24 0  0.46 0.24 0  0.48 0.24 0  0.5 0.24 0  0.52 0.24 0  0.54 0.24 0  0.5600000000000001 0.24 0  0.58 0.24 0  0.6 0.24 0  0.62 0.24 0  0.64 0.24 0  0.66 0.24 0  0.68 0.24 0  0.7 0.24 0  0.72 0.24 0  0.74 0.24 0  0.76 0.24 0  0.78 0.24 0  0.8 0.24 0  0.82 0.24 0  0.84 0.24 0  0.86 0.24 0  0.88 0.24 0  0.9 0.24 0  0.92 0.24 0  0.9399999999999999 0.24 0  0.96 0.24 0  0.98 0.24 0  1 0.24 0  0 0.26 0  0.02 0.26 0  0.04 0.26 0  0.06 0.26 0  0.08 0.26 0  0.1 0.26 0  0.12 0.26 0  0.14 0.26 0  0.16 0.26 0  0.18 0.26 0  0.2 0.26 0  0.22 0.26 0  0.24 0.26 0  0.26 0.26 0  0.28 0.26 0  0.3 0.26 0  0.32 0.26 0  0.34 0.26 0  0.36 0.26 0  0.38 0.26 0  0.4 0.26 0  0.42 0.26 0  0.44 0.26 0  0.46 0.26 0  0.48 0.26 0  0.5 0.26 0  0.52 0.26 0  0.54 0.26 0  0.5600000000000001 0.26 0  0.58 0.26 0  0.6 0.26 0  0.62 0.26 0  0.64 0.26 0  0.66 0.26 0  0.68 0.26 0  0.7 0.26 0  0.72 0.26 0  0.74 0.26 0  0.76 0.26 0  0.78 0.26 0  0.8 0.26 0  0.82 0.26 0  0.84 0.26 0  0.86 0.26 0  0.88 0.26 0  0.9 0.26 0  0.92 0.26 0  0.9399999999999999 0.26 0  0.96 0.26 0  0.98 0.26 0  1 0.26 0  0 0.28 0  0.02 0.28 0  0.04 0.28 0  0.06 0.28 0  0.08 0.28 0  0.1 0.28 0  0.12 0.28 0  0.14 0.28 0  0.16 0.28 0  0.18 0.28 0  0.2 0.28 0  0.22 0.28 0  0.24 0.28 0  0.26 0.28 0  0.28 0.28 0  0.3 0.28 0  0.32 0.28 0  0.34 0.28 0  0.36 0.28 0  0.38 0.28 0  0.4 0.28 0  0.42 0.28 0  0.44 0.28 0  0.46 0.28 0  0.48 0.28 0  0.5 0.28 0  0.52 0.28 0  0.54 0.28 0  0.5600000000000001 0.28 0  0.58 0.28 0  0.6 0.28 0  0.62 0.28 0  0.64 0.28 0  0.66 0.28 0  0.68 0.28 0  0.7 0.28 0  0.72 0.28 0  0.74 0.28 0  0.76 0.28 0  0.78 0.28 0  0.8 0.28 0  0.82 0.28 0  0.84 0.28 0  0.86 0.28
[...]
<PointData  Scalars="f_1200125"> 
<DataArray  type="Float64"  Name="f_1200125"  format="ascii">7.7717680500838815e-01  7.7643551227701491e-01  7.7468098634677551e-01  7.7205652027062965e-01  7.6864665777913577e-01  7.6451497299686211e-01  7.5971460091419929e-01  7.5429284546812136e-01  7.4829367823294091e-01  7.4175926769329426e-01  7.3473097984131785e-01  7.2725004851791819e-01  7.1935801477515027e-01  7.1109699001009241e-01  7.0250977704407536e-01  6.9363987435950725e-01  6.8453138563993932e-01  6.7522885647253139e-01  6.6577706056181141e-01  6.5622075762621590e-01  6.4660444325511901e-01  6.3697210680680783e-01  6.2736700706233894e-01  6.1783146782932130e-01  6.0840668848711488e-01  5.9913255877740690e-01  5.9004746385023332e-01  5.8118806567000392e-01  5.7258905106985569e-01  5.6428284440872500e-01  5.5629929213830287e-01  5.4866533569593923e-01  5.4140469627620069e-01  5.3453759866855310e-01  5.2808056066065800e-01  5.2204626982223901e-01  5.1644356199740060e-01  5.1127750703488706e-01  5.0654959857632231e-01  5.0225803722292772e-01  4.9839809083292752e-01  4.9496251233401745e-01  4.9194199411019718e-01  4.8932563822828168e-01  4.8710142268209544e-01  4.8525664421381015e-01  4.8377831598443288e-01  4.8265348925405882e-01  4.8186944453383085e-01  4.8141355189917534e-01  4.8127528695014110e-01  7.7804124782302453e-01  7.7728777081807288e-01  7.7563649093133102e-01  7.7315113203862695e-01  7.6990109443016952e-01  7.6594475328618827e-01  7.6133288032113355e-01  7.5611148917021509e-01  7.5032370661319947e-01  7.4401103528694079e-01  7.3721422197412401e-01  7.2997385251180191e-01  7.2233074229579941e-01  7.1432616417411077e-01  7.0600194225134483e-01  6.9740043469116664e-01  6.8856442749769076e-01  6.7953696218548898e-01  6.7036112148394866e-01  6.6107979738641320e-01  6.5173546385814862e-01  6.4236997158864861e-01  6.3302437429582847e-01  6.2373878664171234e-01  6.1455226500250459e-01  6.0550269551693392e-01  5.9662666949714482e-01  5.8795932576864218e-01  5.7953414446933182e-01  5.7138268655693358e-01  5.6353428492544444e-01  5.5601570437843384e-01  5.4885079705699780e-01  5.4206018514215659e-01  5.3566100245793047e-01  5.2966672149299965e-01  5.2408708395211079e-01  5.1892814302016610e-01  5.1419241565184992e-01  5.0987913466681700e-01  5.0598458406565583e-01  5.0250249707750527e-01  4.9942449479905582e-01  4.9674054327190226e-01  4.9443940748957727e-01  4.9250908063517007e-01  4.9093716329739662e-01  4.8971115544557009e-01  4.8881857740024376e-01  4.8824670422306432e-01  4.8798399701760276e-01  7.8006796520017108e-01  7.7919356161377917e-01  7.7752649778647998e-01  7.7508593317619467e-01  7.7191915644495590e-01  7.6807334591646725e-01  7.6359310491546772e-01  7.5852075277170750e-01  7.5289700665587722e-01  7.4676166051420290e-01  7.4015414399254409e-01  7.3311393836125860e-01  7.2568085281315464e-01  7.1789517117292767e-01  7.0979768169155510e-01  7.0142960550437494e-01  6.9283244321412329e-01  6.8404776336104334e-01  6.7511696013228428e-01  6.6608100930744718e-01  6.5698025007102856e-01  6.4785421463275172e-01  6.3874151648843713e-01  6.2967979375605865e-01  6.2070569185535096e-01  6.1185486153614810e-01  6.0316194133531364e-01  5.9466049017699474e-01  5.8638284250020323e-01  5.7835987402323286e-01  5.7062068275250677e-01  5.6319220538568393e-01  5.5609880362538799e-01  5.4936186354399219e-01  5.4299945089750346e-01  5.3702605793533464e-01  5.3145246593795548e-01  5.2628573482929097e-01  5.2152931858703266e-01  5.1718329446316791e-01  5.1324468628222286e-01  5.0970785754942438e-01  5.0656494836066657e-01  5.0380633027319777e-01  5.0142105415771498e-01  4.9939726616959845e-01  4.9772256517997537e-01  4.9638427354642123e-01  4.9536959248137591e-01  4.9466586303519672e-01  4.9426679454041916e-01  7.8306515896351236e-01  7.8204082810882503e-01  7.8030164242514255e-01  7.7784554429680208e-01  7.7470592082811252e-01  7.7091995586576145e-01  7.6652543183612165e-01  7.6156001228085568e-01  7.5606114923318979e-01  7.5006626159535505e-01  7.4361297973105789e-01  7.3673935782430156e-01  7.2948400880030251e-01  7.2188614265704232e-01  7.1398550398884164e-01  7.0582221552303537e-01  6.9743654432620272e-01  6.8886861652062759e-01  6.8015811364650725e-01  6.7134398809751072e-01  6.6246423545875044e-01  6.5355575659442700e-01  6.4465432572413350e-01  6.3579465381679556e-01  6.2701051825732634e-01  6.1833492430486381e-01  6.0980025210000932e-01  6.0143832761774763e-01  5.9328036472297085e-01  5.8535676012944071e-01  5.7769674552351058e-01  5.7032791967671659e-01  5.6327571032278134e-01  5.5656283134237361e-01  5.5020879852703242e-01  5.4422955390864058e-01  5.3863723190321033e-01  5.3344008258855713e-01  5.2864254986821313e-01  5.2424548791343240e-01  5.2024648963124698e-01  5.1664029599224481e-01  5.1341925412430645e-01  5.1057379394504054e-01  5.0809289663858259e-01  5.0596453317979251e-01  5.0417605985176883e-01  5.0271458107615763e-01  5.0156732867609810e-01  5.0072252893393021e-01  5.0017923921133278e-01  7.8692391706936515e-01  7.8573234287967209e-01  7.8388799230522244e-01  7.8137562949128214e-01  7.7822058967871421e-01  7.7445289056931732e-01  7.7010448942430809e-01  7.6520855265112853e-01  7.5979911270418066e-01  7.5391098851177640e-01  7.4757981998397927e-01  7.4084211732563221e-01  7.3373526458614002e-01  7.2629744264977891e-01  7.1856745563624802e-01  7.1058446078650861e-01  7.0238761700106789e-01  6.9401568305242367e-01  6.8550660872683478e-01  6.7689716989051096e-01  6.6822270089688229e-01  6.5951698114309043e-01  6.5081231283717578e-01  6.4213976095075165e-01  6.3352949093877831e-01  6.2501116857948325e-01  6.1661436667221536e-01  6.0836886088081210e-01  6.0030469128791941e-01  5.9245199205331478e-01  5.8484059629869334e-01  5.7749942332600590e-01  5.7045573221518198e-01  5.6373435061147081e-01  5.5735697684098862e-01  5.5134162437769008e-01  5.4570225398904493e-01  5.4044861439747460e-01  5.3558628547590426e-01  5.3111689809465890e-01  5.2703849293602012e-01  5.2334597592092602e-01  5.2003162921718316e-01  5.1708564217128727e-01  5.1449663453414440e-01  5.1225215520971534e-01  5.1033915656990503e-01  5.0874447512174514e-01  5.0745536491925758e-01  5.0646061594166158e-01  5.0576364462670453e-01  7.9156463445213221e-01  7.9019225459034159e-01  7.8821967770357693e-01  7.8562171178863105e-01  7.8241868798546077e-01  7.7863563848001327e-01  7.7429995320962863e-01  7.6944092251226359e-01  7.6408942703620120e-01  7.5827779533326978e-01  7.5203974559404607e-01  7.4541033663092515e-01  7.3842587075526001e-01  7.3112370834085683e-01  7.2354197077067195e-01  7.1571912742874788e-01  7.0769348139625887e-01  6.9950259460064479e-01  6.9118270889370537e-01  6.8276825018793463e-01  6.7429146513865479e-01  6.6578228637623194e-01  6.5726858795943044e-01  6.4877670058905046e-01  6.4033204077266737e-01  6.3195981892999031e-01  6.2368587595355551e-01  6.1553740600928153e-01  6.0754312631815743e-01  5.9973314838955383e-01  5.9213854252376075e-01  5.8479048259684363e-01  5.7771914586597961e-01  5.7095258444636476e-01  5.6451571337311768e-01  5.5842949636966399e-01  5.5271039320092963e-01  5.4737010129134589e-01  5.4241557318133060e-01  5.3784926700187041e-01  5.3366957326614173e-01  5.2987135765944215e-01  5.2644656548812618e-01  5.2338484428845333e-01  5.2067415436511877e-01  5.1830135244638376e-01  5.1625275267848769e-01  5.1451469425149277e-01  5.1307412469487523e-01  5.1191980427075301e-01  5.1105874169508847e-01  7.9692250680590038e-01  7.9535739344735645e-01  7.9323853717196668e-01  7.9053231275826608e-01  7.8725558730191203e-01  7.8342978011126563e-01  7.7907872876532624e-01  7.7422851999969633e-01  7.6890731498742504e-01  7.6314525349752282e-01  7.5697439065006922e-01  7.5042861074954859e-01  7.4354346590472764e-01  7.3635589560097292e-01  7.2890379649840886e-01  7.2122543349295443e-01  7.1335870304589699e-01  7.0534031628638250e-01  6.9720492199039197e-01  6.8898445475470493e-01  6.8070758666577669e-01  6.7239933399049434e-01  6.6408168629391573e-01  6.5577467347435991e-01  6.4749734430256234e-01  6.3926865333637883e-01  6.3110910976863155e-01  6.2304263207395705e-01  6.1509635840326082e-01  6.0730054569662606e-01  5.9968848821079546e-01  5.9229497176235202e-01  5.8515468870253851e-01  5.7830048029254910e-01  5.7176193579232004e-01  5.6556419494040600e-01  5.5972713446625866e-01  5.5426500610724005e-01  5.4918645061741012e-01  5.4449482540309802e-01  5.4018875685133527e-01  5.3626282761142374e-01  5.3270832566495663e-01  5.2951400081008548e-01  5.2666679322649967e-01  5.2415251786095951e-01  5.2195650733134391e-01  5.2006423447031636e-01  5.1846189053128899e-01  5.1713764115901006e-01  5.1610148528321642e-01  8.0294127918484726e-01  8.0117238861615314e-01  7.9889207113699834e-01  7.9605909308824840e-01  7.9268762774129431e-01  7.8879628567739990e-01  7.8440605734091362e-01  7.7954038905330680e-01  7.7422516879242664e-01  7.6848873125332096e-01  7.6236184885711122e-01  7.5587765993313971e-01  7.4907148025415804e-01  7.4198044505739957e-01  7.3464293701340444e-01  7.2709778947228554e-01  7.1938323065127063e-01  7.1153577890433783e-01  7.0358870058538525e-01  6.9557150170435400e-01  6.8750896709822540e-01  6.7941919288715147e-01  6.7131623402731588e-01  6.6321134216552158e-01  6.5511641221497885e-01  6.4704008136459801e-01  6.3899476130918131e-01  6.3100032578839760e-01  6.2308306435693039e-01  6.1527163816317265e-01  6.0760342764078046e-01  6.0011978420129020e-01  5.9286177503671789e-01  5.8586931336108183e-01  5.7917874120660040e-01  5.7282104844156123e-01  5.6682073273779576e-01  5.6119537005112108e-01  5.5595565292223614e-01  5.5110588111944103e-01  5.4664472967527422e-01  5.4256615970520883e-01  5.3886037760542649e-01  5.3551477526434832e-01  5.3251480923316630e-01  5.2984480040774551e-01  5.2748865565041825e-01  5.2543052794091749e-01  5.2365537170056231e-01  5.2215025639176771e-01  5.2092763741221160e-01  8.0956989630108844e-01  8.0758678221150804e-01  8.0513166372780864e-01  8.0215619874476729e-01  7.9867222354201517e-01  7.9469597716943496e-01  7.9024604874569115e-01  7.8534366011344336e-01  7.8001281651338272e-01  7.7428044459421896e-01  7.6817648352122248e-01  7.6173387607205578e-01  7.5498839448700228e-01  7.4797823289801169e-01  7.4074329275734085e-01  7.3332413464174584e-01  7.2576044128506811e-01  7.1808990385738081e-01  7.1034446282016095e-01  7.0255117868776062e-01  6.9473208127745900e-01  6.8688807812285846e-01  6.7901131292182415e-01  6.7110644252306861e-01  6.6318548838918090e-01  6.5526229150280291e-01  6.4735001108749790e-01  6.3945878282718049e-01  6.3159788357857338e-01  6.2377625567885342e-01  6.1601722885232224e-01  6.0838732219525715e-01  6.0095354012960034e-01  5.9376030778649547e-01  5.8685627379678684e-01  5.8027998896956112e-01  5.7406209682067644e-01  5.6822443592299410e-01  5.6278008553130576e-01  5.5773421806942092e-01  5.5308521506280417e-01  5.4882590638061179e-01  5.4494482389519339e-01  5.4142738648742972e-01  5.3825696702335357e-01  5.3541582369949858e-01  5.3288590112728706e-01  5.3064952091209405e-01  5.2868991101959995e-01  5.2699258564130436e-01  5.2557193748300746e-01  8.1676047103915961e-01  8.1455319161620388e-01  8.1191124339057885e-01  8.0877950605149829e-01  8.0516759350325207e-01  8.0108956754862359e-01  7.9656185872519780e-01  7.9160373396680317e-01  7.8623761851632856e-01  7.8048939680687557e-01  7.7438865099701881e-01  7.6796877171269540e-01  7.6126685523179360e-01  7.5432328411180649e-01  7.4718091641477569e-01  7.3988380680254440e-01  7.3247433419938879e-01  7.2499344503682805e-01  7.1746997619878550e-01  7.0988493751234760e-01  7.0223174605739747e-01  6.9452670866989086e-01  6.8678272903981585e-01  6.7901069383838197e-01  6.7122247964568615e-01  6.6342947333750435e-01  6.5564256635182216e-01  6.4787145784236344e-01  6.4012525757183314e-01  6.3241257049435362e-01  6.2474095547771402e-01  6.1711926745306944e-01  6.0954840228389762e-01  6.0208541033026985e-01  5.9489272981992947e-01  5.8802542328137375e-01  5.8152421704360457e-01  5.7541585424385677e-01  5.6971593671019249e-01  5.6443020359859586e-01  5.5955613315748431e-01  5.5508464267817315e-01  5.5100174741332120e-01  5.4729006591365859e-01  5.4393011568880045e-01  5.4090139175260743e-01  5.3818324730568223e-01  5.3575560877281436e-01  5.3359947649337669e-01  5.3169837015861787e-01  5.3006809066149174e-01  8.2446696047677925e-01  8.2202608220768980e-01  8.1918630695068273e-01  8.1588596698650817e-01  8.1213240954314803e-01  8.0793753865756812e-01  8.0331570244691319e-01  7.9828433925859166e-01  7.9286448615096239e-01  7.8708128048912440e-01  7.8096440468172101e-01  7.7454839408715437e-01  7.6787268228164640e-01  7.6098123767915937e-01  7.5392199422293604e-01  7.4674376721751301e-01  7.3949476803590786e-01  7.3216955412917817e-01  7.2475802764165898e-01  7.1727497172127741e-01  7.0973060480906291e-01  7.0213717597598035e-01  6.9450606471945397e-01  6.8684788719961865e-01  6.7917302262743628e-01  6.7149143684111989e-01  6.6381255665003047e-01  6.5614512400303904e-01  6.4849724751229143e-01  6.4087642336361683e-01  6.3328949323205008e-01  6.2574245865655165e-01  6.1824055729403304e-01  6.1078785784267930e-01  6.0338697275174491e-01  5.9614488033782342e-01  5.8928093205870280e-01  5.8283233302943360e-01  5.7681732624741966e-01  5.7124153043278458e-01  5.6610049379145255e-01  5.6138202944414639e-01  5.5706844221906970e-01  5.5313844473046458e-01  5.4956871805673602e-01  5.4633514391674720e-01  5.4341375658599744e-01  5.4078146918815717e-01  5.3841653519979693e-01  5.3630004609245130e-01  5.3444866332370533e-01  8.3264427358520865e-01  8.2996093152392059e-01  8.2691322589020066e-01  8.2343310663692615e-01  8.1952549161699773e-01  8.1520000531479497e-01  8.1046883855978491e-01  8.0534757687886971e-01  7.9985592007417439e-01  7.9401843279079720e-01  7.8786527089625091e-01  7.8143279211834105e-01  7.7476394127949433e-01  7.6790799420449951e-01  7.6091980236742429e-01  7.5384425293240265e-01  7.4667350451585091e-01  7.3941567262052499e-01  7.3208106927352945e-01  7.2468070878169055e-01  7.1722482558582046e-01  7.0972367667258107e-01  7.0218717764456540e-01  6.9462481001302001e-01  6.8704568153308732e-01  6.7945847822420102e-01  6.7187140334180739e-01  6.6429210884644951e-01  6.5672766952329498e-01  6.4918456469805830e-01  6.4166863686758679e-01  6.3418502084844297e-01  6.2673811020263692e-01  6.1933162981876411e-01  6.1196868701878127e-01  6.0465185302550872e-01  5.9740507174881907e-01  5.9053356735106677e-01  5.8413434368300854e-01  5.7821149375326408e-01  5.7275696892523742e-01  5.6775366698788909e-01  5.6317851152601828e-01  5.5900485623181206e-01  5.5520431998327258e-01  5.5174815653115150e-01  5.4860825134100100e-01  5.4575783124238453e-01  5.4317186324742306e-01  5.4082857719730781e-01  5.3874492991798373e-01  8.4124767181130522e-01  8.3831366787470230e-01  8.3504877568838765e-01  8.3137867916275188e-01  8.2730560491070526e-01  8.2283664808914703e-01  8.1798161572863748e-01  8.1275404542605523e-01  8.0717216625300714e-01  8.0125995288785490e-01  7.9504822949196163e-01  7.8857578620123348e-01  7.8189017510674863e-01  7.7504798473101744e-01  7.6809906169721542e-01  7.6105418981816519e-01  7.5392304811732769e-01  7.4671438756530384e-01  7.3943771664992131e-01  7.3210218976051111e-01  7.2471681692587775e-01  7.1729041003861149e-01  7.0983152165849817e-01  7.0234837995106936e-01  6.9484886232671506e-01  6.8734045899374441e-01  6.7983022627703849e-01  6.7232473888730837e-01  6.6483005301521780e-01  6.5735167423893814e-01  6.4989452074077858e-01  6.4246288470163782e-01  6.3506040968769495e-01  6.2769008806590865e-01  6.2035426100989444e-01  6.1305450369937864e-01  6.0579158379735698e-01  5.9857368948671852e-01  5.9171024184615229e-01  5.8537669710738760e-01  5.7955811942296076e-01  5.7422974111628022e-01  5.6936084282098087e-01  5.6491756582615249e-01  5.6086497409603087e-01  5.5716851008980384e-01  5.5379498315027509e-01  5.5071321331416245e-01  5.4789432705466234e-01  5.4531326318545992e-01  5.4298669873802208e-01  8.5023238585479610e-01  8.4704031581418338e-01  8.4354984722363280e-01  8.3968047486455455e-01  8.3543138236327463e-01  8.3080676036795642e-01  8.2581364310757466e-01  8.2046312290089796e-01  8.1477157922287746e-01  8.0876209581798386e-01  8.0246615354798334e-01  7.9592518198592710e-01  7.8919162851019431e-01  7.8233213821411129e-01  7.7538128947141960e-01  7.6834743271583772e-01  7.6123846156981489e-01  7.5406227269126169e-01  7.4682672348500712e-01  7.3953956840407709e-01  7.3220844928914086e-01  7.2484083767074092e-01  7.1744398966216494e-01  7.1002489843064531e-01  7.0259025289348342e-01  6.9514639812937984e-01  6.8769929369783811e-01  6.8025447223743385e-01  6.7281700180184034e-01  6.6539145117233645e-01  6.5798185635063522e-01  6.5059168999028527e-01  6.4322383828156926e-01  6.3588058488414090e-01  6.2856359162164088e-01  6.2127387298263503e-01  6.1401181379987879e-01  6.0677684755239192e-01  5.9957755994091888e-01  5.9276423243386456e-01  5.8652832754997486e-01  5.8083351164908126e-01  5.7563850494328461e-01  5.7089996871651405e-01  5.6657465383808592e-01  5.6262085508819326e-01  5.5899930199256787e-01  5.5567366020331010e-01  5.5261066377675194e-01  5.4978154772749421e-01  5.4720213732987555e-01  8.5955340148416082e-01  8.5609680508116026e-01  8.5237330955834700e-01  8.4829626523882595e-01  8.4386137750979018e-01  8.3906943124615441e-01  8.3392412223375867e-01  8.2843346194711809e-01  8.2261128311842635e-01  8.1647909118657491e-01  8.1006840041072214e-01  8.0342310540454254e-01  7.9661607811847523e-01  7.8972389174024415e-01  7.8275532913831414e-01  7.7571686357019265e-01  7.6861494804939323e-01  7.6145601314076716e-01  7.5424649277101141e-01  7.4699277992433699e-01  7.3970118686139652e-01  7.3237789859423275e-01  7.2502892906473926e-01  7.1766007708019075e-01  7.1027688421547197e-01  7.0288459411864357e-01  6.9548811233818830e-01  6.8809196722553267e-01  6.8070027299767155e-01  6.7331669523941562e-01  6.6594441889757461e-01  6.5858611968700675e-01  6.5124394022855547e-01  6.4391947077909661e-01  6.3661373325802262e-01  6.2932717239524605e-01  6.2205966411618074e-01  6.1481056873475104e-01  6.0757881246585543e-01  6.0038879703673853e-01  5.9368169478529742e-01  5.8757973719851020e-01  5.8202764803881613e-01  5.7696982255166473e-01  5.7235271273860633e-01  5.6812602113206945e-01  5.6424336193451452e-01  5.6066250966941855e-01  5.5734528562514984e-01  5.5425884644443324e-01  5.5141761501796882e-01  8.6916538109088604e-01  8.6543891084529145e-01  8.6147599757824089e-01  8.5718386790544820e-01  8.5255423883975479e-01  8.4758386461743318e-01  8.4227234963306330e-01  8.3662371361240839e-01  8.3064815545215132e-01  8.2436442491564876e-01  8.1780338279596421e-01  8.1102236277180795e-01  8.0415070438456204e-01  7.9721247793559546e-01  7.9021261357091654e-01  7.8315597890653088e-01  7.7604749716607613e-01  7.6889220069481345e-01  7.6169516363250001e-01  7.5446146012229376e-01  7.4719612228304055e-01  7.3990409719676553e-01  7.3259020401149688e-01  7.2525909129367094e-01  7.1791519541374116e-01  7.1056270004529598e-01  7.0320549672108001e-01  6.9584714673760073e-01  6.8849084489295531e-01  6.8113938544618924e-01  6.7379513067661467e-01  6.6645998263117678e-01  6.5913535871698947e-01  6.5182217157449407e-01  6.4452081401126970e-01  6.3723115172857059e-01  6.2995252896093434e-01  6.2268379026781806e-01  6.1542324662889047e-01  6.0816980210411398e-01  6.0101885695765955e-01  5.9447322293037508e-01  5.8853652673812096e-01  5.8313860986920940e-01  5.7821346152878028e-01  5.7370072302033304e-01  5.6954590310121611e-01  5.6570021820863525e-01  5.6212013075757028e-01  5.5876841268574584e-01  5.5565757757269385e-01  8.7902269357931007e-01  8.7502229747776050e-01  8.7081479809308882e-01  8.6630130732937727e-01  8.6146898415353523e-01  8.5630981618463087e-01  8.5081838124123266e-01  8.4499351349427165e-01  8.3884036713246835e-01  8.3237348823105684e-01  8.2562072729698088e-01  8.1872882935480285e-01  8.1178367370506199e-01  8.0478798