<?xml version="1.0"?>
<VTKFile type="UnstructuredGrid"  version="0.1"  >
<UnstructuredGrid>
<Piece  NumberOfPoints="2601" NumberOfCells="5000">
<Points>
<DataArray  type="Float64"  NumberOfComponents="3"  format="ascii">0 0 0  0.2 0 0  0.4 0 0  0.6 0 0  0.8 0 0  1 0 0  1.2 0 0  1.4 0 0  1.6 0 0  1.8 0 0  2 0 0  2.2 0 0  2.4 0 0  2.6 0 0  2.8 0 0  3 0 0  3.2 0 0  3.4 0 0  3.6 0 0  3.8 0 0  4 0 0  4.2 0 0  4.4 0 0  4.6 0 0  4.8 0 0  5 0 0  5.2 0 0  5.4 0 0  5.6 0 0  5.8 0 0  6 0 0  6.2 0 0  6.4 0 0  6.6 0 0  6.8 0 0  7 0 0  7.2 0 0  7.4 0 0  7.6 0 0  7.8 0 0  8 0 0  8.199999999999999 0 0  8.4 0 0  8.6 0 0  8.800000000000001 0 0  9 0 0  9.199999999999999 0 0  9.4 0 0  9.6 0 0  9.800000000000001 0 0  10 0 0  0 0.2 0  0.2 0.2 0  0.4 0.2 0  0.6 0.2 0  0.8 0.2 0  1 0.2 0  1.2 0.2 0  1.4 0.2 0  1.6 0.2 0  1.8 0.2 0  2 0.2 0  2.2 0.2 0  2.4 0.2 0  2.6 0.2 0  2.8 0.2 0  3 0.2 0  3.2 0.2 0  3.4 0.2 0  3.6 0.2 0  3.8 0.2 0  4 0.2 0  4.2 0.2 0  4.4 0.2 0  4.6 0.2 0  4.8 0.2 0  5 0.2 0  5.2 0.2 0  5.4 0.2 0  5.6 0.2 0  5.8 0.2 0  6 0.2 0  6.2 0.2 0  6.4 0.2 0  6.6 0.2 0  6.8 0.2 0  7 0.2 0  7.2 0.2 0  7.4 0.2 0  7.6 0.2 0  7.8 0.2 0  8 0.2 0  8.199999999999999 0.2 0  8.4 0.2 0  8.6 0.2 0  8.800000000000001 0.2 0  9 0.2 0  9.199999999999999 0.2 0  9.4 0.2 0  9.6 0.2 0  9.800000000000001 0.2 0  10 0.2 0  0 0.4 0  0.2 0.4 0  0.4 0.4 0  0.6 0.4 0  0.8 0.4 0  1 0.4 0  1.2 0.4 0  1.4 0.4 0  1.6 0.4 0  1.8 0.4 0  2 0.4 0  2.2 0.4 0  2.4 0.4 0  2.6 0.4 0  2.8 0.4 0  3 0.4 0  3.2 0.4 0  3.4 0.4 0  3.6 0.4 0  3.8 0.4 0  4 0.4 0  4.2 0.4 0  4.4 0.4 0  4.6 0.4 0  4.8 0.4 0  5 0.4 0  5.2 0.4 0  5.4 0.4 0  5.6 0.4 0  5.8 0.4 0  6 0.4 0  6.2 0.4 0  6.4 0.4 0  6.6 0.4 0  6.8 0.4 0  7 0.4 0  7.2 0.4 0  7.4 0.4 0  7.6 0.4 0  7.8 0.4 0  8 0.4 0  8.199999999999999 0.4 0  8.4 0.4 0  8.6 0.4 0  8.800000000000001 0.4 0  9 0.4 0  9.199999999999999 0.4 0  9.4 0.4 0  9.6 0.4 0  9.800000000000001 0.4 0  10 0.4 0  0 0.6 0  0.2 0.6 0  0.4 0.6 0  0.6 0.6 0  0.8 0.6 0  1 0.6 0  1.2 0.6 0  1.4 0.6 0  1.6 0.6 0  1.8 0.6 0  2 0.6 0  2.2 0.6 0  2.4 0.6 0  2.6 0.6 0  2.8 0.6 0  3 0.6 0  3.2 0.6 0  3.4 0.6 0  3.6 0.6 0  3.8 0.6 0  4 0.6 0  4.2 0.6 0  4.4 0.6 0  4.6 0.6 0  4.8 0.6 0  5 0.6 0  5.2 0.6 0  5.4 0.6 0  5.6 0.6 0  5.8 0.6 0  6 0.6 0  6.2 0.6 0  6.4 0.6 0  6.6 0.6 0  6.8 0.6 0  7 0.6 0  7.2 0.6 0  7.4 0.6 0  7.6 0.6 0  7.8 0.6 0  8 0.6 0  8.199999999999999 0.6 0  8.4 0.6 0  8.6 0.6 0  8.800000000000001 0.6 0  9 0.6 0  9.199999999999999 0.6 0  9.4 0.6 0  9.6 0.6 0  9.800000000000001 0.6 0  10 0.6 0  0 0.8 0  0.2 0.8 0  0.4 0.8 0  0.6 0.8 0  0.8 0.8 0  1 0.8 0  1.2 0.8 0  1.4 0.8 0  1.6 0.8 0  1.8 0.8 0  2 0.8 0  2.2 0.8 0  2.4 0.8 0  2.6 0.8 0  2.8 0.8 0  3 0.8 0  3.2 0.8 0  3.4 0.8 0  3.6 0.8 0  3.8 0.8 0  4 0.8 0  4.2 0.8 0  4.4 0.8 0  4.6 0.8 0  4.8 0.8 0  5 0.8 0  5.2 0.8 0  5.4 0.8 0  5.6 0.8 0  5.8 0.8 0  6 0.8 0  6.2 0.8 0  6.4 0.8 0  6.6 0.8 0  6.8 0.8 0  7 0.8 0  7.2 0.8 0  7.4 0.8 0  7.6 0.8 0  7.8 0.8 0  8 0.8 0  8.199999999999999 0.8 0  8.4 0.8 0  8.6 0.8 0  8.800000000000001 0.8 0  9 0.8 0  9.199999999999999 0.8 0  9.4 0.8 0  9.6 0.8 0  9.800000000000001 0.8 0  10 0.8 0  0 1 0  0.2 1 0  0.4 1 0  0.6 1 0  0.8 1 0  1 1 0  1.2 1 0  1.4 1 0  1.6 1 0  1.8 1 0  2 1 0  2.2 1 0  2.4 1 0  2.6 1 0  2.8 1 0  3 1 0  3.2 1 0  3.4 1 0  3.6 1 0  3.8 1 0  4 1 0  4.2 1 0  4.4 1 0  4.6 1 0  4.8 1 0  5 1 0  5.2 1 0  5.4 1 0  5.6 1 0  5.8 1 0  6 1 0  6.2 1 0  6.4 1 0  6.6 1 0  6.8 1 0  7 1 0  7.2 1 0  7.4 1 0  7.6 1 0  7.8 1 0  8 1 0  8.199999999999999 1 0  8.4 1 0  8.6 1 0  8.800000000000001 1 0  9 1 0  9.199999999999999 1 0  9.4 1 0  9.6 1 0  9.800000000000001 1 0  10 1 0  0 1.2 0  0.2 1.2 0  0.4 1.2 0  0.6 1.2 0  0.8 1.2 0  1 1.2 0  1.2 1.2 0  1.4 1.2 0  1.6 1.2 0  1.8 1.2 0  2 1.2 0  2.2 1.2 0  2.4 1.2 0  2.6 1.2 0  2.8 1.2 0  3 1.2 0  3.2 1.2 0  3.4 1.2 0  3.6 1.2 0  3.8 1.2 0  4 1.2 0  4.2 1.2 0  4.4 1.2 0  4.6 1.2 0  4.8 1.2 0  5 1.2 0  5.2 1.2 0  5.4 1.2 0  5.6 1.2 0  5.8 1.2 0  6 1.2 0  6.2 1.2 0  6.4 1.2 0  6.6 1.2 0  6.8 1.2 0  7 1.2 0  7.2 1.2 0  7.4 1.2 0  7.6 1.2 0  7.8 1.2 0  8 1.2 0  8.199999999999999 1.2 0  8.4 1.2 0  8.6 1.2 0  8.800000000000001 1.2 0  9 1.2 0  9.199999999999999 1.2 0  9.4 1.2 0  9.6 1.2 0  9.800000000000001 1.2 0  10 1.2 0  0 1.4 0  0.2 1.4 0  0.4 1.4 0  0.6 1.4 0  0.8 1.4 0  1 1.4 0  1.2 1.4 0  1.4 1.4 0  1.6 1.4 0  1.8 1.4 0  2 1.4 0  2.2 1.4 0  2.4 1.4 0  2.6 1.4 0  2.8 1.4 0  3 1.4 0  3.2 1.4 0  3.4 1.4 0  3.6 1.4 0  3.8 1.4 0  4 1.4 0  4.2 1.4 0  4.4 1.4 0  4.6 1.4 0  4.8 1.4 0  5 1.4 0  5.2 1.4 0  5.4 1.4 0  5.6 1.4 0  5.8 1.4 0  6 1.4 0  6.2 1.4 0  6.4 1.4 0  6.6 1.4 0  6.8 1.4 0  7 1.4 0  7.2 1.4 0  7.4 1.4 0  7.6 1.4 0  7.8 1.4 0  8 1.4 0  8.199999999999999 1.4 0  8.4 1.4 0  8.6 1.4 0  8.800000000000001 1.4 0  9 1.4 0  9.199999999999999 1.4 0  9.4 1.4 0  9.6 1.4 0  9.800000000000001 1.4 0  10 1.4 0  0 1.6 0  0.2 1.6 0  0.4 1.6 0  0.6 1.6 0  0.8 1.6 0  1 1.6 0  1.2 1.6 0  1.4 1.6 0  1.6 1.6 0  1.8 1.6 0  2 1.6 0  2.2 1.6 0  2.4 1.6 0  2.6 1.6 0  2.8 1.6 0  3 1.6 0  3.2 1.6 0  3.4 1.6 0  3.6 1.6 0  3.8 1.6 0  4 1.6 0  4.2 1.6 0  4.4 1.6 0  4.6 1.6 0  4.8 1.6 0  5 1.6 0  5.2 1.6 0  5.4 1.6 0  5.6 1.6 0  5.8 1.6 0  6 1.6 0  6.2 1.6 0  6.4 1.6 0  6.6 1.6 0  6.8 1.6 0  7 1.6 0  7.2 1.6 0  7.4 1.6 0  7.6 1.6 0  7.8 1.6 0  8 1.6 0  8.199999999999999 1.6 0  8.4 1.6 0  8.6 1.6 0  8.800000000000001 1.6 0  9 1.6 0  9.199999999999999 1.6 0  9.4 1.6 0  9.6 1.6 0  9.800000000000001 1.6 0  10 1.6 0  0 1.8 0  0.2 1.8 0  0.4 1.8 0  0.6 1.8 0  0.8 1.8 0  1 1.8 0  1.2 1.8 0  1.4 1.8 0  1.6 1.8 0  1.8 1.8 0  2 1.8 0  2.2 1.8 0  2.4 1.8 0  2.6 1.8 0  2.8 1.8 0  3 1.8 0  3.2 1.8 0  3.4 1.8 0  3.6 1.8 0  3.8 1.8 0  4 1.8 0  4.2 1.8 0  4.4 1.8 0  4.6 1.8 0  4.8 1.8 0  5 1.8 0  5.2 1.8 0  5.4 1.8 0  5.6 1.8 0  5.8 1.8 0  6 1.8 0  6.2 1.8 0  6.4 1.8 0  6.6 1.8 0  6.8 1.8 0  7 1.8 0  7.2 1.8 0  7.4 1.8 0  7.6 1.8 0  7.8 1.8 0  8 1.8 0  8.199999999999999 1.8 0  8.4 1.8 0  8.6 1.8 0  8.800000000000001 1.8 0  9 1.8 0  9.199999999999999 1.8 0  9.4 1.8 0  9.6 1.8 0  9.800000000000001 1.8 0  10 1.8 0  0 2 0  0.2 2 0  0.4 2 0  0.6 2 0  0.8 2 0  1 2 0  1.2 2 0  1.4 2 0  1.6 2 0  1.8 2 0  2 2 0  2.2 2 0  2.4 2 0  2.6 2 0  2.8 2 0  3 2 0  3.2 2 0  3.4 2 0  3.6 2 0  3.8 2 0  4 2 0  4.2 2 0  4.4 2 0  4.6 2 0  4.8 2 0  5 2 0  5.2 2 0  5.4 2 0  5.6 2 0  5.8 2 0  6 2 0  6.2 2 0  6.4 2 0  6.6 2 0  6.8 2 0  7 2 0  7.2 2 0  7.4 2 0  7.6 2 0  7.8 2 0  8 2 0  8.199999999999999 2 0  8.4 2 0  8.6 2 0  8.800000000000001 2 0  9 2 0  9.199999999999999 2 0  9.4 2 0  9.6 2 0  9.800000000000001 2 0  10 2 0  0 2.2 0  0.2 2.2 0  0.4 2.2 0  0.6 2.2 0  0.8 2.2 0  1 2.2 0  1.2 2.2 0  1.4 2.2 0  1.6 2.2 0  1.8 2.2 0  2 2.2 0  2.2 2.2 0  2.4 2.2 0  2.6 2.2 0  2.8 2.2 0  3 2.2 0  3.2 2.2 0  3.4 2.2 0  3.6 2.2 0  3.8 2.2 0  4 2.2 0  4.2 2.2 0  4.4 2.2 0  4.6 2.2 0  4.8 2.2 0  5 2.2 0  5.2 2.2 0  5.4 2.2 0  5.6 2.2 0  5.8 2.2 0  6 2.2 0  6.2 2.2 0  6.4 2.2 0  6.6 2.2 0  6.8 2.2 0  7 2.2 0  7.2 2.2 0  7.4 2.2 0  7.6 2.2 0  7.8 2.2 0  8 2.2 0  8.199999999999999 2.2 0  8.4 2.2 0  8.6 2.2 0  8.800000000000001 2.2 0  9 2.2 0  9.199999999999999 2.2 0  9.4 2.2 0  9.6 2.2 0  9.800000000000001 2.2 0  10 2.2 0  0 2.4 0  0.2 2.4 0  0.4 2.4 0  0.6 2.4 0  0.8 2.4 0  1 2.4 0  1.2 2.4 0  1.4 2.4 0  1.6 2.4 0  1.8 2.4 0  2 2.4 0  2.2 2.4 0  2.4 2.4 0  2.6 2.4 0  2.8 2.4 0  3 2.4 0  3.2 2.4 0  3.4 2.4 0  3.6 2.4 0  3.8 2.4 0  4 2.4 0  4.2 2.4 0  4.4 2.4 0  4.6 2.4 0  4.8 2.4 0  5 2.4 0  5.2 2.4 0  5.4 2.4 0  5.6 2.4 0  5.8 2.4 0  6 2.4 0  6.2 2.4 0  6.4 2.4 0  6.6 2.4 0  6.8 2.4 0  7 2.4 0  7.2 2.4 0  7.4 2.4 0  7.6 2.4 0  7.8 2.4 0  8 2.4 0  8.199999999999999 2.4 0  8.4 2.4 0  8.6 2.4 0  8.800000000000001 2.4 0  9 2.4 0  9.199999999999999 2.4 0  9.4 2.4 0  9.6 2.4 0  9.800000000000001 2.4 0  10 2.4 0  0 2.6 0  0.2 2.6 0  0.4 2.6 0  0.6 2.6 0  0.8 2.6 0  1 2.6 0  1.2 2.6 0  1.4 2.6 0  1.6 2.6 0  1.8 2.6 0  2 2.6 0  2.2 2.6 0  2.4 2.6 0  2.6 2.6 0  2.8 2.6 0  3 2.6 0  3.2 2.6 0  3.4 2.6 0  3.6 2.6 0  3.8 2.6 0  4 2.6 0  4.2 2.6 0  4.4 2.6 0  4.6 2.6 0  4.8 2.6 0  5 2.6 0  5.2 2.6 0  5.4 2.6 0  5.6 2.6 0  5.8 2.6 0  6 2.6 0  6.2 2.6 0  6.4 2.6 0  6.6 2.6 0  6.8 2.6 0  7 2.6 0  7.2 2.6 0  7.4 2.6 0  7.6 2.6 0  7.8 2.6 0  8 2.6 0  8.199999999999999 2.6 0  8.4 2.6 0  8.6 2.6 0  8.800000000000001 2.6 0  9 2.6 0  9.199999999999999 2.6 0  9.4 2.6 0  9.6 2.6 0  9.800000000000001 2.6 0  10 2.6 0  0 2.8 0  0.2 2.8 0  0.4 2.8 0  0.6 2.8 0  0.8 2.8 0  1 2.8 0  1.2 2.8 0  1.4 2.8 0  1.6 2.8 0  1.8 2.8 0  2 2.8 0  2.2 2.8 0  2.4 2.8 0  2.6 2.8 0  2.8 2.8 0  3 2.8 0  3.2 2.8 0  3.4 2.8 0  3.6 2.8 0  3.8 2.8 0  4 2.8 0  4.2 2.8 0  4.4 2.8 0  4.6 2.8 0  4.8 2.8 0  5 2.8 0  5.2 2.8 0  5.4 2.8 0  5.6 2.8 0  5.8 2.8 0  6 2.8 0  6.2 2.8 0  6.4 2.8 0  6.6 2.8 0  6.8 2.8 0  7 2.8 0  7.2 2.8 0  7.4 2.8 0  7.6 2.8 0  7.8 2.8 0  8 2.8 0  8.199999999999999 2.8 0  8.4 2.8 0  8.6 2.8 0  8.800000000000001 2.8 0  9 2.8 0  9.199999999999999 2.8 0  9.4 2.8 0  9.6 2.8 0  9.800000000000001 2.8 0  10 2.8 0  0 3 0  0.2 3 0  0.4 3 0  0.6 3 0  0.8 3 0  1 3 0  1.2 3 0  1.4 3 0  1.6 3 0  1.8 3 0  2 3 0  2.2 3 0  2.4 3 0  2.6 3 0  2.8 3 0  3 3 0  3.2 3 0  3.4 3 0  3.6 3 0  3.8 3 0  4 3 0  4.2 3 0  4.4 3 0  4.6 3 0  4.8 3 0  5 3 0  5.2 3 0  5.4 3 0  5.6 3 0  5.8 3 0  6 3 0  6.2 3 0  6.4 3 0  6.6 3 0  6.8 3 0  7 3 0  7.2 3 0  7.4 3 0  7.6 3 0  7.8 3 0  8 3 0  8.199999999999999 3 0  8.4 3 0  8.6 3 0  8.800000000000001 3 0  9 3 0  9.199999999999999 3 0  9.4 3 0  9.6 3 0  9.800000000000001 3 0  10 3 0  0 3.2 0  0.2 3.2 0  0.4 3.2 0  0.6 3.2 0  0.8 3.2 0  1 3.2 0  1.2 3.2 0  1.4 3.2 0  1.6 3.2 0  1.8 3.2 0  2 3.2 0  2.2 3.2 0  2.4 3.2 0  2.6 3.2 0  2.8 3.2 0  3 3.2 0  3.2 3.2 0  3.4 3.2 0  3.6 3.2 0  3.8 3.2 0  4 3.2 0  4.2 3.2 0  4.4 3.2 0  4.6 3.2 0  4.8 3.2 0  5 3.2 0  5.2 3.2 0  5.4 3.2 0  5.6 3.2 0  5.8 3.2 0  6 3.2 0  6.2 3.2 0  6.4 3.2 0  6.6 3.2 0  6.8 3.2 0  7 3.2 0  7.2 3.2 0  7.4 3.2 0  7.6 3.2 0  7.8 3.2 0  8 3.2 0  8.199999999999999 3.2 0  8.4 3.2 0  8.6 3.2 0  8.800000000000001 3.2 0  9 3.2 0  9.199999999999999 3.2 0  9.4 3.2 0  9.6 3.2 0  9.800000000000001 3.2 0  10 3.2 0  0 3.4 0  0.2 3.4 0  0.4 3.4 0  0.6 3.4 0  0.8 3.4 0  1 3
[...]
<PointData  Scalars="f_12"> 
<DataArray  type="Float64"  Name="f_12"  format="ascii">-2.8142973502374566e-258  -4.2715712136990500e-258  -5.3880049889579438e-258  -6.2559731270061215e-258  -6.8079412194458907e-258  -6.8836144818207076e-258  -6.3118612555629463e-258  -5.0107270357974055e-258  -3.0774792114709448e-258  -8.2388516701857894e-259  1.2784396565454205e-258  2.7404501912018707e-258  3.2354485558521846e-258  2.7351693757479807e-258  1.5312143100144422e-258  1.2235899021333597e-259  -9.8470483610209280e-259  -1.4690901164199111e-258  -1.2959504202049556e-258  -6.8538335719189031e-259  2.1397299585600218e-260  5.2435406948512619e-259  6.7824884354875437e-259  5.1618062797319902e-259  1.9143826647087050e-259  -1.1788755594472187e-259  -2.9015268280018263e-259  -2.9506762382740316e-259  -1.7965725194053371e-259  -2.5556581724794128e-260  9.5124166790885392e-260  1.4586823713065310e-259  1.2854727807552997e-259  6.9728574667476341e-260  2.0814788133531156e-261  -4.9680536582824759e-260  -7.4450243852403372e-260  -7.3178091646573897e-260  -5.3774106417533921e-260  -2.5911554476939825e-260  2.3831142647119645e-261  2.6059964265557258e-260  4.2904853174786449e-260  5.2724407218221310e-260  5.6434805223929413e-260  5.5330497561431906e-260  5.0593387057807323e-260  4.3003865907754795e-260  3.2798116465505381e-260  1.9648102483225363e-260  2.8344469547542513e-261  -1.0668548409562635e-258  -2.6163249219006979e-258  -3.9854669170204436e-258  -5.1744994419019295e-258  -6.0872884559653796e-258  -6.5423341329907172e-258  -6.3365706689628514e-258  -5.3441895897438484e-258  -3.6162185153560252e-258  -1.4315351749269424e-258  7.4246860615856395e-259  2.3851505450480616e-258  3.1087410399774160e-258  2.8136980999539037e-258  1.7349902051261211e-258  3.4881198512958214e-259  -8.2167586098786140e-259  -1.4114272089851130e-258  -1.3353153554679075e-258  -7.7810108678822163e-259  -7.1766019923020052e-260  4.6895263071819182e-259  6.7223311344435174e-259  5.4711992527928364e-259  2.3506373041501567e-259  -8.3767289679562874e-260  -2.7672028525040001e-259  -3.0111473855637120e-259  -1.9611491062515996e-259  -4.2068916676160025e-260  8.5214020559249413e-260  1.4388494660332030e-259  1.3184825792257346e-259  7.4423651472971806e-260  5.3674375745791307e-261  -4.8539876057272086e-260  -7.4486916810930478e-260  -7.2780676073446595e-260  -5.1709821353841175e-260  -2.1869306504792229e-260  7.7845974516787738e-261  3.1605365790817493e-260  4.7207539703372687e-260  5.4567889995104645e-260  5.4962963217792416e-260  5.0101680486694586e-260  4.1554658954278217e-260  3.0452526678045219e-260  1.7393326409986137e-260  2.5157307563981745e-261  -1.4287159454336272e-260  4.6241773827717245e-259  -9.9418716981631644e-259  -2.4414451785530947e-258  -3.8339769861110734e-258  -5.0538158994471110e-258  -5.8987713996689071e-258  -6.1290072748979807e-258  -5.5600973820717471e-258  -4.1708084666737715e-258  -2.1741072050110839e-258  -2.2053551178583529e-261  1.8109099274319320e-258  2.8144795541639830e-258  2.8154592531044293e-258  1.9579285916528000e-258  6.6275426865654921e-259  -5.4900661815508297e-259  -1.2666477768912006e-258  -1.3364627022549683e-258  -8.8292777632547871e-259  -2.0872375206446436e-259  3.6451723202869157e-259  6.3337942557978727e-259  5.7023712991631220e-259  2.9182260397566111e-259  -2.7156213806644228e-260  -2.4348887027279579e-259  -2.9734446607658999e-259  -2.1367181822496869e-259  -6.6786196439037220e-260  6.5451367366157686e-260  1.3473897492832974e-259  1.3252776119482578e-259  8.0538495830704018e-260  1.2309389339550417e-260  -4.3436359766443280e-260  -7.1545572239956595e-260  -7.0859814182760824e-260  -4.9455125234295293e-260  -1.8617734128802644e-260  1.1729082274379249e-260  3.5212034029360560e-260  4.9188234019880567e-260  5.3814841705948901e-260  5.0817708720470558e-260  4.2440421725774918e-260  3.0749279617256490e-260  1.7286747907822627e-260  2.9944033922186863e-261  -1.1682805140531312e-260  -2.6589014682759029e-260  1.9284643620454208e-258  6.4697689477290797e-259  -7.5501225689251157e-259  -2.2310127963903207e-258  -3.6638534401657105e-258  -4.8522039488325376e-258  -5.5347987381904885e-258  -5.4714262095824915e-258  -4.5543479626201030e-258  -2.9004066474692630e-258  -8.6816535101188521e-259  1.0295977390578067e-258  2.2976150241308896e-258  2.6448339097868472e-258  2.0988533341510883e-258  9.8897246562460848e-259  -1.9825814393694390e-259  -1.0231025753109576e-258  -1.2599708586204932e-258  -9.5457010462427413e-259  -3.5701958500294605e-259  2.2168173844450568e-259  5.5244452792243011e-259  5.6573759597247860e-259  3.4234146525824935e-259  4.0677472018926191e-260  -1.9144931483988720e-259  -2.7710127635743164e-259  -2.2295406810813545e-259  -9.2135123652897191e-260  3.9201286315679243e-260  1.1759100986016947e-259  1.2718001369360396e-259  8.4191701813101574e-260  2.0128830719797423e-260  -3.5409030263638800e-260  -6.5141365113679878e-260  -6.6091914388963742e-260  -4.5588505730101871e-260  -1.5157829582442045e-260  1.4588289078714190e-260  3.6693985278662717e-260  4.8340840236234046e-260  4.9929969745452592e-260  4.3685097575722136e-260  3.2399144337035370e-260  1.8595645211087457e-260  4.1268475425023065e-261  -9.8930974230683136e-261  -2.2956217201576177e-260  -3.4956819494245210e-260  3.3187579238692127e-258  2.2678068050225761e-258  1.0122221410822710e-258  -4.2869598183640007e-259  -1.9581212142754900e-258  -3.3939518681059330e-258  -4.4798390181085031e-258  -4.9411411777178818e-258  -4.5889275565173699e-258  -3.4273891956941888e-258  -1.7058512268005322e-258  1.2791828680768201e-259  1.5711733373162000e-258  2.2518950910829385e-258  2.0724849564119393e-258  1.2406769366664304e-258  1.7012199285138418e-259  -7.0180698044582910e-259  -1.0910997967646689e-258  -9.5818142243126311e-259  -4.8071975794900711e-259  6.3229614352516454e-260  4.3397473639192505e-259  5.2356091274445602e-259  3.7039069948291837e-259  1.0574514102684571e-259  -1.2740774663168317e-259  -2.3950684596025186e-259  -2.1815590310486822e-259  -1.1123297459134227e-259  1.1400311928634804e-260  9.4184528015023881e-260  1.1478801368172128e-259  8.2965713350431955e-260  2.6421070484351185e-260  -2.5973506409613769e-260  -5.5720967290752846e-260  -5.8184439154423992e-260  -3.9587837472127007e-260  -1.1144194805714309e-260  1.6366307981699094e-260  3.5784268183841619e-260  4.4336880560921430e-260  4.2753626604881292e-260  3.3730370951909252e-260  2.0497571717756495e-260  5.8622468530681529e-261  -8.2244280910315578e-261  -2.0700982055992235e-260  -3.1216134248950918e-260  -3.9904887304605227e-260  4.4905184318838340e-258  3.7146492508419207e-258  2.6964778072962564e-258  1.4152498317940896e-258  -7.2253632057529414e-260  -1.6188616540351079e-258  -2.9935769049006950e-258  -3.9180701006267171e-258  -4.1470488760051248e-258  -3.5770439402421809e-258  -2.3272404910257890e-258  -7.3862718855494857e-259  7.2709721218905756e-259  1.6548477257994714e-258  1.8356768903204264e-258  1.3418515219326467e-258  4.8005775913915529e-259  -3.5374301680225313e-259  -8.4557277772356211e-259  -8.7937534061058238e-259  -5.5012791934588721e-259  -8.2112437585193635e-260  2.9471584996636286e-259  4.4557324154493853e-259  3.6691244864689372e-259  1.5516332601374744e-259  -6.1715612797462123e-260  -1.8911505477296784e-259  -1.9816213086748729e-259  -1.1961429303696312e-259  -1.2954104354650290e-260  6.8030106914402511e-260  9.6660551527037075e-260  7.6343957961399047e-260  2.9732942596511698e-260  -1.6684602347199938e-260  -4.4475338217212191e-260  -4.7890524588879436e-260  -3.1918490697457252e-260  -6.9240255744406914e-261  1.6773466419636214e-260  3.2316723497276332e-260  3.7263462720541744e-260  3.2732319983792370e-260  2.1776861617386403e-260  7.8433933765359035e-261  -6.2402197551658395e-261  -1.8674740907455598e-260  -2.8656057439003704e-260  -3.6128205074240804e-260  -4.1521399910436295e-260  5.2202792673549855e-258  4.7468499352390254e-258  4.0404874410747357e-258  3.0394480723499102e-258  1.7491584906877449e-258  2.6327848930514247e-259  -1.2306266135427374e-258  -2.4760332788589346e-258  -3.2065371676552294e-258  -3.2375825837545099e-258  -2.5606559282646764e-258  -1.3832783535664560e-258  -7.8345586258944963e-260  9.4751000261182190e-259  1.4103960695644953e-258  1.2560679234099195e-258  6.6511103771291003e-259  -4.4373675499422905e-260  -5.6559855934067710e-259  -7.2941716209600437e-259  -5.5150396356667054e-259  -1.8914478090521781e-259  1.5762190270661361e-259  3.4405842157974837e-259  3.3208417749428215e-259  1.8088675017689998e-259  -4.7584450089051858e-261  -1.3381815107550278e-259  -1.6616618514399017e-259  -1.1614811377748071e-259  -3.0286909767759573e-260  4.3037360663402168e-260  7.5582442679466979e-260  6.5457846823051284e-260  2.9753248456285711e-260  -8.7371264780720475e-261  -3.2920935726846993e-260  -3.6658094585879179e-260  -2.3750632373544513e-260  -3.2867304993607343e-261  1.5468952639228572e-260  2.6453826565298030e-260  2.7805713265847129e-260  2.1024096436166265e-260  9.3224914488728094e-261  -3.9242111995581684e-261  -1.6152719707764423e-260  -2.5938184788059657e-260  -3.2866220296855680e-260  -3.7215499013329164e-260  -3.9662055224874745e-260  5.2857283820860485e-258  5.1120262940334322e-258  4.7571560143746840e-258  4.1282226106696099e-258  3.1795366142376412e-258  1.9402154490792540e-258  5.3394107815728748e-259  -8.2780108590648314e-259  -1.8892457387511973e-258  -2.4236513615918372e-258  -2.3209785328204548e-258  -1.6532813176197046e-258  -6.7190404080373520e-259  2.7695166470168838e-259  8.8590759068783622e-259  1.0063062300211468e-258  6.9559666327620283e-259  1.7080390235698054e-259  -3.0460432329070498e-259  -5.4090502607194938e-259  -4.9136979234032275e-259  -2.4464768320526239e-259  4.3695991214807466e-260  2.3670410898611310e-259  2.7420699441378963e-259  1.8158330120311143e-259  3.6218407111775145e-260  -8.1952158406733538e-260  -1.2799296024568814e-259  -1.0276691544942423e-259  -3.9221126032999940e-260  2.2280153195562084e-260  5.4657058076998926e-260  5.2334728203903272e-260  2.7058941961952193e-260  -2.8004953382012950e-261  -2.2470015609210117e-260  -2.6087950895620559e-260  -1.6417084451819463e-260  -9.9259878507205834e-262  1.2416468598581332e-260  1.8897018181303385e-260  1.7297209093192694e-260  9.3953430728931352e-261  -1.6872726767110547e-261  -1.2938321560058100e-260  -2.2298232427341799e-260  -2.8856112471627939e-260  -3.2621611476717066e-260  -3.4156401169654405e-260  -3.4269392581293564e-260  4.5699169819969003e-258  4.6538687692218480e-258  4.6376166730909051e-258  4.4149925350611148e-258  3.9019027990845381e-258  3.0650958597726626e-258  1.9529465681578158e-258  7.0823094428069077e-259  -4.5333953496256097e-259  -1.3004238676420542e-258  -1.6619937311766662e-258  -1.4980198240977500e-258  -9.3083068950363641e-259  -2.0871942411896742e-259  3.9033560323809948e-259  6.7089102788194652e-259  5.9264901744138405e-259  2.6857751222742959e-259  -1.0625207816246257e-259  -3.5437557503016839e-259  -3.9245320595077619e-259  -2.5064667352638726e-259  -3.4708029402501334e-260  1.4022128203626177e-259  2.0593649144885342e-259  1.6197610825522923e-259  5.8722917820411454e-260  -3.9796285004250908e-260  -8.9928241659829716e-260  -8.3294340758135324e-260  -4.0485469341781769e-260  7.3290711047078939e-261  3.6348745129539454e-260  3.9064456594894022e-260  2.2653379218013332e-260  9.5315061676041553e-262  -1.4105390195735084e-260  -1.7409617901644744e-260  -1.0856715550061512e-260  -3.2140227081483905e-262  8.1404910963271726e-261  1.0909672672120110e-260  7.5188218520032283e-261  -1.5825641892907017e-262  -9.3483941254130758e-261  -1.7631991235896165e-260  -2.3591133997837468e-260  -2.6856489529283441e-260  -2.7799282903080501e-260  -2.7148163571688776e-260  -2.5708784444217153e-260  3.1501589810247553e-258  3.4118370735668432e-258  3.6627428917505258e-258  3.8043762021796928e-258  3.7360432966379347e-258  3.3787988129942767e-258  2.7100541826445535e-258  1.7917222054703721e-258  7.7226374814456314e-259  -1.4747857157059219e-259  -7.7700204333578655e-259  -1.0036457617490192e-258  -8.3936638211337877e-259  -4.2194045342283020e-259  3.9453177197657593e-260  3.5230478112268466e-259  4.1895519277252407e-259  2.6578145055953405e-259  1.1787826252011180e-260  -2.0209793270564637e-259  -2.8308130112817486e-259  -2.2105414526289759e-259  -7.6210478770729014e-260  6.5426691823166731e-260  1.3968590975923451e-259  1.3025985197334146e-259  6.4721284643311241e-260  -1.0293434631212771e-260  -5.6916993843050122e-260  -6.1980265068754287e-260  -3.6200912385234232e-260  -1.7705587770633156e-261  2.2007262638240452e-260  2.7222207712460692e-260  1.7561982132315014e-260  2.7437898742847507e-261  -8.2080125210215711e-261  -1.1154002313149366e-260  -7.2914474584238472e-261  -8.9235596131390747e-262  3.6811963550263839e-261  4.0321039955871712e-261  2.1671880007023390e-262  -6.0124759899166615e-261  -1.2430814231066124e-260  -1.7330147657988519e-260  -1.9944785892618243e-260  -2.0365195709259618e-260  -1.9190777327223660e-260  -1.7174560131341595e-260  -1.4996798634814801e-260  1.3233154731622133e-258  1.6597796067920981e-258  2.0603024983770947e-258  2.4521427944448720e-258  2.7422312789505761e-258  2.8323299564521989e-258  2.6495364135695661e-258  2.1810741467279356e-258  1.4951869226893127e-258  7.3221324896513564e-259  6.3276704224040368e-260  -3.6883197907910431e-259  -5.0136895469980533e-259  -3.7455642240930025e-259  -1.1264090163774257e-259  1.3260526948513707e-259  2.4902379115177946e-259  2.0743151312836269e-259  6.0549983519601586e-260  -9.7565989627041675e-260  -1.8581002962403920e-259  -1.7404736263088241e-259  -8.7967245123761131e-260  1.5614335433848872e-260  8.4206979586988711e-260  9.4986285797934596e-260  5.8976641568967599e-260  6.8546227638517033e-261  -3.1648432184420842e-260  -4.2308625653286806e-260  -2.8956616020791200e-260  -6.0606202778896125e-261  1.1881570916248026e-260  1.7660900122155918e-260  1.2608172964027769e-260  3.0618620667805864e-261  -4.5673518327250325e-261  -7.1268543774417522e-261  -5.2680306394010586e-261  -1.8584450612118210e-261  2.1689380109784590e-262  -4.5019028296858044e-262  -3.5110003863275140e-261  -7.5213207115857442e-261  -1.0902498899028019e-260  -1.2645274066913995e-260  -1.2529110584749667e-260  -1.0945342533399832e-260  -8.5593988968834042e-261  -6.0193542971147261e-261  -3.8005036231549463e-261  -4.6203495851540016e-259  -1.5210995347379146e-259  2.6401329108066771e-259  7.4960864247608402e-259  1.2385853867713759e-258  1.6409891653380775e-258  1.8638704279363643e-258  1.8432953536585663e-258  1.5745771876495826e-258  1.1241157776499174e-258  6.1253382702848710e-259  1.7309577020960909e-259  -9.6984000155148852e-260  -1.7025293160792974e-259  -9.3521563250443348e-260  3.9466236578964707e-260  1.3503533479104336e-259  1.4206813991076111e-259  6.8249096454706829e-260  -3.5711600314783240e-260  -1.1124716821193518e-259  -1.2472758197103698e-259  -8.0677121321249234e-260  -1.1923689096244412e-260  4.3399715680148339e-260  6.2740586163159460e-260  4.7003261386644807e-260  1.4145295879452783e-260  -1.4571740490249408e-260  -2.6381858958887927e-260  -2.1035236177426407e-260  -7.0616413848278411e-261  5.4458397518147297e-261  1.0592072729076066e-260  8.3444907193297749e-261  2.5257930705694637e-261  -2.5728922250877612e-261  -4.6671018108863242e-261  -4.0115826777104614e-261  -2.3618711396398329e-261  -1.4618289874883860e-261  -2.0375065399330728e-261  -3.6715394113250636e-261  -5.3330808482861775e-261  -6.0672511402528031e-261  -5.4370489272742768e-261  -3.5837231618452638e-261  -1.0138860032007761e-261  1.6863097185170979e-261  4.0582832160667751e-261  5.8544702729281576e-261  -1.7525697486512519e-258  -1.5431067810660311e-258  -1.2248896116084701e-258  -7.9865587503187639e-259  -2.9428050022689781e-259  2.2688129811461127e-259  6.8144273281078351e-259  9.8656824466862089e-259  1.0893506044840009e-258  9.8995436442929303e-259  7.4543877800325620e-259  4.4962101571563166e-259  1.9699588506277093e-259  4.7553395076104088e-260  8.7953790926623761e-261  4.1858940259472785e-260  8.7630715238678213e-260  9.9082407065138587e-260  6.2583000128731453e-260  -1.9637703174349694e-261  -5.9208877523424813e-260  -8.1652049036422444e-260  -6.4125124357072652e-260  -2.2901172132738532e-260  1.7078318722004401e-260  3.7203598027201931e-260  3.3478822647232014e-260  1.4944579256542419e-260  -4.5351347994952344e-261  -1.4889175781192578e-260  -1.3981812115950291e-260  -6.2468324419977246e-261  1.8111973386115768e-261  5.7956755032632177e-261  5.0575163555865834e-261  1.7149695285780617e-261  -1.5151509808695434e-261  -3.0452928994330513e-261  -2.8783759680562227e-261  -1.9836139906079751e-261  -1.3280057319331802e-261  -1.2474617656769156e-261  -1.4113405266992035e-261  -1.2053310630941524e-261  -1.7594162402859863e-262  1.7348717852036667e-261  4.2259873589638028e-261  6.8360296460465211e-261  9.1514581292031428e-261  1.0927721268829304e-260  1.2113554785111375e-260  -2.2572174186733286e-258  -2.1778149998496053e-258  -2.0202494804034940e-258  -1.7586735535919354e-258  -1.3891269175645970e-258  -9.3639517997885181e-259  -4.5434598922210373e-259  -1.5144271085045168e-260  3.1203418502664563e-259  4.8527804449271101e-259  5.0576199007152735e-259  4.1628096836047998e-259  2.8222033867982672e-259  1.6417561808968193e-259  9.5732505279214619e-260  7.6437230307260587e-260  8.1394837348647564e-260  8.0779733891169261e-260  5.8013176682344766e-260  1.6910402435374911e-260  -2.4517457437529309e-260  -4.7699271124189690e-260  -4.5136553628898900e-260  -2.3414905804505186e-260  2.6227557937883986e-261  1.9396800532634097e-260  2.1475764416646620e-260  1.2400099408969997e-260  3.7118764303030735e-262  -7.4659465988339920e-261  -8.5299510867794000e-261  -4.7344758237456783e-261  5.6272277160397948e-263  2.8290904205878981e-261  2.7945757663432821e-261  1.0204185470218427e-261  -8.6163678158150201e-262  -1.7924655183044668e-261  -1.6527377389323403e-261  -9.2438973545122530e-262  -1.1376582302277378e-262  6.1678261606286876e-262  1.4482244762498741e-261  2.6606145605817637e-261  4.3816265812481574e-261  6.4909204801849945e-261  8.6941375195353165e-261  1.0674380914085214e-260  1.2217342426153392e-260  1.3260949001280627e-260  1.3881429732234665e-260  -1.9565714772718863e-258  -1.9910993141612523e-258  -1.9946373436820960e-258  -1.9296283362091007e-258  -1.7697674859561457e-258  -1.5078840041728656e-258  -1.1623458317603489e-258  -7.7654616693219137e-259  -4.0845971294092580e-259  -1.1252077213442328e-259  7.8758091333227309e-260  1.6458661724684221e-259  1.7215020953127397e-259  1.4151575103858007e-259  1.0739466929038451e-259  8.6999361020697276e-260  7.8910197234935337e-260  7.1474579529300724e-260  5.4500283947931698e-260  2.7060253888805479e-260  -2.5068892223412937e-261  -2.2971188536378200e-260  -2.7754398828578252e-260  -1.8572967408901448e-260  -3.4833492546890758e-261  8.5159649348374379e-261  1.2418083469356172e-260  8.8343546649855094e-261  2.0979285434921915e-261  -3.1924770414303266e-261  -4.7746475423709324e-261  -3.2062762012191981e-261  -5.8629066978523456e-262  1.1816328903814658e-261  1.4113138720566322e-261  5.8154662669865658e-262  -3.7931906445334228e-262  -7.9972671823581711e-262  -5.3700505247932516e-262  1.8410961120513458e-262  1.0926813462504984e-261  2.0787224956030674e-261  3.1896869160494212e-261  4.4973191514167248e-261  5.9773607333183677e-261  7.4887196330894138e-261  8.8424771333372529e-261  9.8934978728299126e-261  1.0594789278799084e-260  1.0999070793622569e-260  1.1228586594610809e-260  -1.1002140256510276e-258  -1.2008925757676935e-258  -1.3148108153389079e-258  -1.4076629752630523e-258  -1.4461304463935848e-258  -1.4041867714681234e-258  -1.2714181037531087e-258  -1.0588933197410305e-258  -7.9827657969486936e-259  -5.3278368797178373e-259  -3.0304646263957231e-259  -1.3419526807832160e-259  -3.0190569769365539e-260  2.2436856128830041e-260  4.4379948878784035e-260  5.2940519842695689e-26