<?xml version="1.0"?>
<VTKFile type="UnstructuredGrid"  version="0.1"  >
<UnstructuredGrid>
<Piece  NumberOfPoints="2601" NumberOfCells="5000">
<Points>
<DataArray  type="Float64"  NumberOfComponents="3"  format="ascii">0 0 0  0.2 0 0  0.4 0 0  0.6 0 0  0.8 0 0  1 0 0  1.2 0 0  1.4 0 0  1.6 0 0  1.8 0 0  2 0 0  2.2 0 0  2.4 0 0  2.6 0 0  2.8 0 0  3 0 0  3.2 0 0  3.4 0 0  3.6 0 0  3.8 0 0  4 0 0  4.2 0 0  4.4 0 0  4.6 0 0  4.8 0 0  5 0 0  5.2 0 0  5.4 0 0  5.6 0 0  5.8 0 0  6 0 0  6.2 0 0  6.4 0 0  6.6 0 0  6.8 0 0  7 0 0  7.2 0 0  7.4 0 0  7.6 0 0  7.8 0 0  8 0 0  8.199999999999999 0 0  8.4 0 0  8.6 0 0  8.800000000000001 0 0  9 0 0  9.199999999999999 0 0  9.4 0 0  9.6 0 0  9.800000000000001 0 0  10 0 0  0 0.2 0  0.2 0.2 0  0.4 0.2 0  0.6 0.2 0  0.8 0.2 0  1 0.2 0  1.2 0.2 0  1.4 0.2 0  1.6 0.2 0  1.8 0.2 0  2 0.2 0  2.2 0.2 0  2.4 0.2 0  2.6 0.2 0  2.8 0.2 0  3 0.2 0  3.2 0.2 0  3.4 0.2 0  3.6 0.2 0  3.8 0.2 0  4 0.2 0  4.2 0.2 0  4.4 0.2 0  4.6 0.2 0  4.8 0.2 0  5 0.2 0  5.2 0.2 0  5.4 0.2 0  5.6 0.2 0  5.8 0.2 0  6 0.2 0  6.2 0.2 0  6.4 0.2 0  6.6 0.2 0  6.8 0.2 0  7 0.2 0  7.2 0.2 0  7.4 0.2 0  7.6 0.2 0  7.8 0.2 0  8 0.2 0  8.199999999999999 0.2 0  8.4 0.2 0  8.6 0.2 0  8.800000000000001 0.2 0  9 0.2 0  9.199999999999999 0.2 0  9.4 0.2 0  9.6 0.2 0  9.800000000000001 0.2 0  10 0.2 0  0 0.4 0  0.2 0.4 0  0.4 0.4 0  0.6 0.4 0  0.8 0.4 0  1 0.4 0  1.2 0.4 0  1.4 0.4 0  1.6 0.4 0  1.8 0.4 0  2 0.4 0  2.2 0.4 0  2.4 0.4 0  2.6 0.4 0  2.8 0.4 0  3 0.4 0  3.2 0.4 0  3.4 0.4 0  3.6 0.4 0  3.8 0.4 0  4 0.4 0  4.2 0.4 0  4.4 0.4 0  4.6 0.4 0  4.8 0.4 0  5 0.4 0  5.2 0.4 0  5.4 0.4 0  5.6 0.4 0  5.8 0.4 0  6 0.4 0  6.2 0.4 0  6.4 0.4 0  6.6 0.4 0  6.8 0.4 0  7 0.4 0  7.2 0.4 0  7.4 0.4 0  7.6 0.4 0  7.8 0.4 0  8 0.4 0  8.199999999999999 0.4 0  8.4 0.4 0  8.6 0.4 0  8.800000000000001 0.4 0  9 0.4 0  9.199999999999999 0.4 0  9.4 0.4 0  9.6 0.4 0  9.800000000000001 0.4 0  10 0.4 0  0 0.6 0  0.2 0.6 0  0.4 0.6 0  0.6 0.6 0  0.8 0.6 0  1 0.6 0  1.2 0.6 0  1.4 0.6 0  1.6 0.6 0  1.8 0.6 0  2 0.6 0  2.2 0.6 0  2.4 0.6 0  2.6 0.6 0  2.8 0.6 0  3 0.6 0  3.2 0.6 0  3.4 0.6 0  3.6 0.6 0  3.8 0.6 0  4 0.6 0  4.2 0.6 0  4.4 0.6 0  4.6 0.6 0  4.8 0.6 0  5 0.6 0  5.2 0.6 0  5.4 0.6 0  5.6 0.6 0  5.8 0.6 0  6 0.6 0  6.2 0.6 0  6.4 0.6 0  6.6 0.6 0  6.8 0.6 0  7 0.6 0  7.2 0.6 0  7.4 0.6 0  7.6 0.6 0  7.8 0.6 0  8 0.6 0  8.199999999999999 0.6 0  8.4 0.6 0  8.6 0.6 0  8.800000000000001 0.6 0  9 0.6 0  9.199999999999999 0.6 0  9.4 0.6 0  9.6 0.6 0  9.800000000000001 0.6 0  10 0.6 0  0 0.8 0  0.2 0.8 0  0.4 0.8 0  0.6 0.8 0  0.8 0.8 0  1 0.8 0  1.2 0.8 0  1.4 0.8 0  1.6 0.8 0  1.8 0.8 0  2 0.8 0  2.2 0.8 0  2.4 0.8 0  2.6 0.8 0  2.8 0.8 0  3 0.8 0  3.2 0.8 0  3.4 0.8 0  3.6 0.8 0  3.8 0.8 0  4 0.8 0  4.2 0.8 0  4.4 0.8 0  4.6 0.8 0  4.8 0.8 0  5 0.8 0  5.2 0.8 0  5.4 0.8 0  5.6 0.8 0  5.8 0.8 0  6 0.8 0  6.2 0.8 0  6.4 0.8 0  6.6 0.8 0  6.8 0.8 0  7 0.8 0  7.2 0.8 0  7.4 0.8 0  7.6 0.8 0  7.8 0.8 0  8 0.8 0  8.199999999999999 0.8 0  8.4 0.8 0  8.6 0.8 0  8.800000000000001 0.8 0  9 0.8 0  9.199999999999999 0.8 0  9.4 0.8 0  9.6 0.8 0  9.800000000000001 0.8 0  10 0.8 0  0 1 0  0.2 1 0  0.4 1 0  0.6 1 0  0.8 1 0  1 1 0  1.2 1 0  1.4 1 0  1.6 1 0  1.8 1 0  2 1 0  2.2 1 0  2.4 1 0  2.6 1 0  2.8 1 0  3 1 0  3.2 1 0  3.4 1 0  3.6 1 0  3.8 1 0  4 1 0  4.2 1 0  4.4 1 0  4.6 1 0  4.8 1 0  5 1 0  5.2 1 0  5.4 1 0  5.6 1 0  5.8 1 0  6 1 0  6.2 1 0  6.4 1 0  6.6 1 0  6.8 1 0  7 1 0  7.2 1 0  7.4 1 0  7.6 1 0  7.8 1 0  8 1 0  8.199999999999999 1 0  8.4 1 0  8.6 1 0  8.800000000000001 1 0  9 1 0  9.199999999999999 1 0  9.4 1 0  9.6 1 0  9.800000000000001 1 0  10 1 0  0 1.2 0  0.2 1.2 0  0.4 1.2 0  0.6 1.2 0  0.8 1.2 0  1 1.2 0  1.2 1.2 0  1.4 1.2 0  1.6 1.2 0  1.8 1.2 0  2 1.2 0  2.2 1.2 0  2.4 1.2 0  2.6 1.2 0  2.8 1.2 0  3 1.2 0  3.2 1.2 0  3.4 1.2 0  3.6 1.2 0  3.8 1.2 0  4 1.2 0  4.2 1.2 0  4.4 1.2 0  4.6 1.2 0  4.8 1.2 0  5 1.2 0  5.2 1.2 0  5.4 1.2 0  5.6 1.2 0  5.8 1.2 0  6 1.2 0  6.2 1.2 0  6.4 1.2 0  6.6 1.2 0  6.8 1.2 0  7 1.2 0  7.2 1.2 0  7.4 1.2 0  7.6 1.2 0  7.8 1.2 0  8 1.2 0  8.199999999999999 1.2 0  8.4 1.2 0  8.6 1.2 0  8.800000000000001 1.2 0  9 1.2 0  9.199999999999999 1.2 0  9.4 1.2 0  9.6 1.2 0  9.800000000000001 1.2 0  10 1.2 0  0 1.4 0  0.2 1.4 0  0.4 1.4 0  0.6 1.4 0  0.8 1.4 0  1 1.4 0  1.2 1.4 0  1.4 1.4 0  1.6 1.4 0  1.8 1.4 0  2 1.4 0  2.2 1.4 0  2.4 1.4 0  2.6 1.4 0  2.8 1.4 0  3 1.4 0  3.2 1.4 0  3.4 1.4 0  3.6 1.4 0  3.8 1.4 0  4 1.4 0  4.2 1.4 0  4.4 1.4 0  4.6 1.4 0  4.8 1.4 0  5 1.4 0  5.2 1.4 0  5.4 1.4 0  5.6 1.4 0  5.8 1.4 0  6 1.4 0  6.2 1.4 0  6.4 1.4 0  6.6 1.4 0  6.8 1.4 0  7 1.4 0  7.2 1.4 0  7.4 1.4 0  7.6 1.4 0  7.8 1.4 0  8 1.4 0  8.199999999999999 1.4 0  8.4 1.4 0  8.6 1.4 0  8.800000000000001 1.4 0  9 1.4 0  9.199999999999999 1.4 0  9.4 1.4 0  9.6 1.4 0  9.800000000000001 1.4 0  10 1.4 0  0 1.6 0  0.2 1.6 0  0.4 1.6 0  0.6 1.6 0  0.8 1.6 0  1 1.6 0  1.2 1.6 0  1.4 1.6 0  1.6 1.6 0  1.8 1.6 0  2 1.6 0  2.2 1.6 0  2.4 1.6 0  2.6 1.6 0  2.8 1.6 0  3 1.6 0  3.2 1.6 0  3.4 1.6 0  3.6 1.6 0  3.8 1.6 0  4 1.6 0  4.2 1.6 0  4.4 1.6 0  4.6 1.6 0  4.8 1.6 0  5 1.6 0  5.2 1.6 0  5.4 1.6 0  5.6 1.6 0  5.8 1.6 0  6 1.6 0  6.2 1.6 0  6.4 1.6 0  6.6 1.6 0  6.8 1.6 0  7 1.6 0  7.2 1.6 0  7.4 1.6 0  7.6 1.6 0  7.8 1.6 0  8 1.6 0  8.199999999999999 1.6 0  8.4 1.6 0  8.6 1.6 0  8.800000000000001 1.6 0  9 1.6 0  9.199999999999999 1.6 0  9.4 1.6 0  9.6 1.6 0  9.800000000000001 1.6 0  10 1.6 0  0 1.8 0  0.2 1.8 0  0.4 1.8 0  0.6 1.8 0  0.8 1.8 0  1 1.8 0  1.2 1.8 0  1.4 1.8 0  1.6 1.8 0  1.8 1.8 0  2 1.8 0  2.2 1.8 0  2.4 1.8 0  2.6 1.8 0  2.8 1.8 0  3 1.8 0  3.2 1.8 0  3.4 1.8 0  3.6 1.8 0  3.8 1.8 0  4 1.8 0  4.2 1.8 0  4.4 1.8 0  4.6 1.8 0  4.8 1.8 0  5 1.8 0  5.2 1.8 0  5.4 1.8 0  5.6 1.8 0  5.8 1.8 0  6 1.8 0  6.2 1.8 0  6.4 1.8 0  6.6 1.8 0  6.8 1.8 0  7 1.8 0  7.2 1.8 0  7.4 1.8 0  7.6 1.8 0  7.8 1.8 0  8 1.8 0  8.199999999999999 1.8 0  8.4 1.8 0  8.6 1.8 0  8.800000000000001 1.8 0  9 1.8 0  9.199999999999999 1.8 0  9.4 1.8 0  9.6 1.8 0  9.800000000000001 1.8 0  10 1.8 0  0 2 0  0.2 2 0  0.4 2 0  0.6 2 0  0.8 2 0  1 2 0  1.2 2 0  1.4 2 0  1.6 2 0  1.8 2 0  2 2 0  2.2 2 0  2.4 2 0  2.6 2 0  2.8 2 0  3 2 0  3.2 2 0  3.4 2 0  3.6 2 0  3.8 2 0  4 2 0  4.2 2 0  4.4 2 0  4.6 2 0  4.8 2 0  5 2 0  5.2 2 0  5.4 2 0  5.6 2 0  5.8 2 0  6 2 0  6.2 2 0  6.4 2 0  6.6 2 0  6.8 2 0  7 2 0  7.2 2 0  7.4 2 0  7.6 2 0  7.8 2 0  8 2 0  8.199999999999999 2 0  8.4 2 0  8.6 2 0  8.800000000000001 2 0  9 2 0  9.199999999999999 2 0  9.4 2 0  9.6 2 0  9.800000000000001 2 0  10 2 0  0 2.2 0  0.2 2.2 0  0.4 2.2 0  0.6 2.2 0  0.8 2.2 0  1 2.2 0  1.2 2.2 0  1.4 2.2 0  1.6 2.2 0  1.8 2.2 0  2 2.2 0  2.2 2.2 0  2.4 2.2 0  2.6 2.2 0  2.8 2.2 0  3 2.2 0  3.2 2.2 0  3.4 2.2 0  3.6 2.2 0  3.8 2.2 0  4 2.2 0  4.2 2.2 0  4.4 2.2 0  4.6 2.2 0  4.8 2.2 0  5 2.2 0  5.2 2.2 0  5.4 2.2 0  5.6 2.2 0  5.8 2.2 0  6 2.2 0  6.2 2.2 0  6.4 2.2 0  6.6 2.2 0  6.8 2.2 0  7 2.2 0  7.2 2.2 0  7.4 2.2 0  7.6 2.2 0  7.8 2.2 0  8 2.2 0  8.199999999999999 2.2 0  8.4 2.2 0  8.6 2.2 0  8.800000000000001 2.2 0  9 2.2 0  9.199999999999999 2.2 0  9.4 2.2 0  9.6 2.2 0  9.800000000000001 2.2 0  10 2.2 0  0 2.4 0  0.2 2.4 0  0.4 2.4 0  0.6 2.4 0  0.8 2.4 0  1 2.4 0  1.2 2.4 0  1.4 2.4 0  1.6 2.4 0  1.8 2.4 0  2 2.4 0  2.2 2.4 0  2.4 2.4 0  2.6 2.4 0  2.8 2.4 0  3 2.4 0  3.2 2.4 0  3.4 2.4 0  3.6 2.4 0  3.8 2.4 0  4 2.4 0  4.2 2.4 0  4.4 2.4 0  4.6 2.4 0  4.8 2.4 0  5 2.4 0  5.2 2.4 0  5.4 2.4 0  5.6 2.4 0  5.8 2.4 0  6 2.4 0  6.2 2.4 0  6.4 2.4 0  6.6 2.4 0  6.8 2.4 0  7 2.4 0  7.2 2.4 0  7.4 2.4 0  7.6 2.4 0  7.8 2.4 0  8 2.4 0  8.199999999999999 2.4 0  8.4 2.4 0  8.6 2.4 0  8.800000000000001 2.4 0  9 2.4 0  9.199999999999999 2.4 0  9.4 2.4 0  9.6 2.4 0  9.800000000000001 2.4 0  10 2.4 0  0 2.6 0  0.2 2.6 0  0.4 2.6 0  0.6 2.6 0  0.8 2.6 0  1 2.6 0  1.2 2.6 0  1.4 2.6 0  1.6 2.6 0  1.8 2.6 0  2 2.6 0  2.2 2.6 0  2.4 2.6 0  2.6 2.6 0  2.8 2.6 0  3 2.6 0  3.2 2.6 0  3.4 2.6 0  3.6 2.6 0  3.8 2.6 0  4 2.6 0  4.2 2.6 0  4.4 2.6 0  4.6 2.6 0  4.8 2.6 0  5 2.6 0  5.2 2.6 0  5.4 2.6 0  5.6 2.6 0  5.8 2.6 0  6 2.6 0  6.2 2.6 0  6.4 2.6 0  6.6 2.6 0  6.8 2.6 0  7 2.6 0  7.2 2.6 0  7.4 2.6 0  7.6 2.6 0  7.8 2.6 0  8 2.6 0  8.199999999999999 2.6 0  8.4 2.6 0  8.6 2.6 0  8.800000000000001 2.6 0  9 2.6 0  9.199999999999999 2.6 0  9.4 2.6 0  9.6 2.6 0  9.800000000000001 2.6 0  10 2.6 0  0 2.8 0  0.2 2.8 0  0.4 2.8 0  0.6 2.8 0  0.8 2.8 0  1 2.8 0  1.2 2.8 0  1.4 2.8 0  1.6 2.8 0  1.8 2.8 0  2 2.8 0  2.2 2.8 0  2.4 2.8 0  2.6 2.8 0  2.8 2.8 0  3 2.8 0  3.2 2.8 0  3.4 2.8 0  3.6 2.8 0  3.8 2.8 0  4 2.8 0  4.2 2.8 0  4.4 2.8 0  4.6 2.8 0  4.8 2.8 0  5 2.8 0  5.2 2.8 0  5.4 2.8 0  5.6 2.8 0  5.8 2.8 0  6 2.8 0  6.2 2.8 0  6.4 2.8 0  6.6 2.8 0  6.8 2.8 0  7 2.8 0  7.2 2.8 0  7.4 2.8 0  7.6 2.8 0  7.8 2.8 0  8 2.8 0  8.199999999999999 2.8 0  8.4 2.8 0  8.6 2.8 0  8.800000000000001 2.8 0  9 2.8 0  9.199999999999999 2.8 0  9.4 2.8 0  9.6 2.8 0  9.800000000000001 2.8 0  10 2.8 0  0 3 0  0.2 3 0  0.4 3 0  0.6 3 0  0.8 3 0  1 3 0  1.2 3 0  1.4 3 0  1.6 3 0  1.8 3 0  2 3 0  2.2 3 0  2.4 3 0  2.6 3 0  2.8 3 0  3 3 0  3.2 3 0  3.4 3 0  3.6 3 0  3.8 3 0  4 3 0  4.2 3 0  4.4 3 0  4.6 3 0  4.8 3 0  5 3 0  5.2 3 0  5.4 3 0  5.6 3 0  5.8 3 0  6 3 0  6.2 3 0  6.4 3 0  6.6 3 0  6.8 3 0  7 3 0  7.2 3 0  7.4 3 0  7.6 3 0  7.8 3 0  8 3 0  8.199999999999999 3 0  8.4 3 0  8.6 3 0  8.800000000000001 3 0  9 3 0  9.199999999999999 3 0  9.4 3 0  9.6 3 0  9.800000000000001 3 0  10 3 0  0 3.2 0  0.2 3.2 0  0.4 3.2 0  0.6 3.2 0  0.8 3.2 0  1 3.2 0  1.2 3.2 0  1.4 3.2 0  1.6 3.2 0  1.8 3.2 0  2 3.2 0  2.2 3.2 0  2.4 3.2 0  2.6 3.2 0  2.8 3.2 0  3 3.2 0  3.2 3.2 0  3.4 3.2 0  3.6 3.2 0  3.8 3.2 0  4 3.2 0  4.2 3.2 0  4.4 3.2 0  4.6 3.2 0  4.8 3.2 0  5 3.2 0  5.2 3.2 0  5.4 3.2 0  5.6 3.2 0  5.8 3.2 0  6 3.2 0  6.2 3.2 0  6.4 3.2 0  6.6 3.2 0  6.8 3.2 0  7 3.2 0  7.2 3.2 0  7.4 3.2 0  7.6 3.2 0  7.8 3.2 0  8 3.2 0  8.199999999999999 3.2 0  8.4 3.2 0  8.6 3.2 0  8.800000000000001 3.2 0  9 3.2 0  9.199999999999999 3.2 0  9.4 3.2 0  9.6 3.2 0  9.800000000000001 3.2 0  10 3.2 0  0 3.4 0  0.2 3.4 0  0.4 3.4 0  0.6 3.4 0  0.8 3.4 0  1 3
[...]
<PointData  Scalars="f_9"> 
<DataArray  type="Float64"  Name="f_9"  format="ascii">-1.3171141968885185e+00  -1.1818563133258215e+00  -1.0676053162567800e+00  -9.6891598634789933e-01  -8.8169023180074979e-01  -8.0343143023231312e-01  -7.3281424491210145e-01  -6.6914328083107899e-01  -6.1196295758964081e-01  -5.6085945590697661e-01  -5.1539538703319632e-01  -4.7510879069687006e-01  -4.3953240897568868e-01  -4.0821100889268735e-01  -3.8071070209824581e-01  -3.5662127170581759e-01  -3.3555432807024771e-01  -3.1713976339225308e-01  -3.0102198600862073e-01  -2.8685639866857338e-01  -2.7430564777730476e-01  -2.6303430350490919e-01  -2.5269994857530348e-01  -2.4293848899727882e-01  -2.3334230438960421e-01  -2.2343189871014738e-01  -2.1262473001693014e-01  -2.0020794631481073e-01  -1.8532349140433679e-01  -1.6697336694964024e-01  -1.4404947759606690e-01  -1.1538732801569025e-01  -7.9837490514190146e-02  -3.6344887921471440e-02  1.5975408304448192e-02  7.7775874690502914e-02  1.4943451767661936e-01  2.3103591373470275e-01  3.2237434114515917e-01  4.2297572008474738e-01  5.3213169442730612e-01  6.4894401009391023e-01  7.7237387922356016e-01  9.0129141001786173e-01  1.0345304274500022e+00  1.1709559195262140e+00  1.3095606326547200e+00  1.4495921925776099e+00  1.5907647544102961e+00  1.7339373553448330e+00  1.8860235982229296e+00  -1.4595155273733462e+00  -1.2986348074103806e+00  -1.1632557658928253e+00  -1.0486666403516836e+00  -9.4942485913377839e-01  -8.6143898224581972e-01  -7.8222054454914225e-01  -7.1045243500701938e-01  -6.4544696937746249e-01  -5.8675566515880162e-01  -5.3397130585424524e-01  -4.8666278661254392e-01  -4.4437426465928226e-01  -4.0664452963561015e-01  -3.7302436753820356e-01  -3.4308588478147412e-01  -3.1642482437022101e-01  -2.9265871335531835e-01  -2.7142332127371910e-01  -2.5236891314817472e-01  -2.3515675920556869e-01  -2.1945542444652452e-01  -2.0493549616611426e-01  -1.9126073140668895e-01  -1.7807345056205298e-01  -1.6497281618665866e-01  -1.5148668220261066e-01  -1.3704070883579134e-01  -1.2093146659287694e-01  -1.0231195986517340e-01  -8.0197293603455844e-02  -5.3494829314243486e-02  -2.1058020932009997e-02  1.8242205494559832e-02  6.5438499685781915e-02  1.2139183635092868e-01  1.8672991430341793e-01  2.6180591413428334e-01  3.4668030078689982e-01  4.4112462598127417e-01  5.4464398394617874e-01  6.5651140985778011e-01  7.7581235672389348e-01  9.0149395930899590e-01  1.0324142444295126e+00  1.1673967687784428e+00  1.3052981315231791e+00  1.4451050652742650e+00  1.5860624757021888e+00  1.7278861052955323e+00  1.8714413722207202e+00  -1.6602751796287860e+00  -1.4803056109911485e+00  -1.3195953693964904e+00  -1.1839494946751170e+00  -1.0686441731355152e+00  -9.6824740867456038e-01  -8.7869083810937831e-01  -7.9751260094911713e-01  -7.2342034007072564e-01  -6.5574723565917425e-01  -5.9406184951366736e-01  -5.3797118908025365e-01  -4.8705669100342591e-01  -4.4087424845233913e-01  -3.9897409006377155e-01  -3.6091834392142952e-01  -3.2629037372066200e-01  -2.9469703341993941e-01  -2.6576675840251929e-01  -2.3914601244083233e-01  -2.1449558239832966e-01  -1.9148717127210982e-01  -1.6979979264723263e-01  -1.4911460747560187e-01  -1.2910618231614557e-01  -1.0942801628315253e-01  -8.9691023360152250e-02  -6.9435719684031838e-02  -4.8101868266447204e-02  -2.5002321961114266e-02  6.9055394827215156e-04  2.9938278854774798e-02  6.3805302719801629e-02  1.0340469444206500e-01  1.4982675135963772e-01  2.0406056330360448e-01  2.6691977153168328e-01  3.3898235261829851e-01  4.2055095980187090e-01  5.1163630606972788e-01  6.1196234272736616e-01  7.2098970801746853e-01  8.3795060610870253e-01  9.6189322478094597e-01  1.0917305591465489e+00  1.2262892322154926e+00  1.3643644941669921e+00  1.5047895952656616e+00  1.6465365358778727e+00  1.7888488300221046e+00  1.9314579766862618e+00  -1.9016684868607536e+00  -1.7078424912395862e+00  -1.5283461380498329e+00  -1.3678857713333490e+00  -1.2318180079567940e+00  -1.1154127036931276e+00  -1.0132721120124213e+00  -9.2138029821206435e-01  -8.3732833722089761e-01  -7.5986828193860090e-01  -6.8836725352611849e-01  -6.2241918827073051e-01  -5.6165095158247846e-01  -5.0566098186666708e-01  -4.5402103498927654e-01  -4.0629687603510106e-01  -3.6206603770756851e-01  -3.2092704451618093e-01  -2.8250148447361106e-01  -2.4643198189347812e-01  -2.1237864165894016e-01  -1.8001544992932739e-01  -1.4902704184269422e-01  -1.1910528757357318e-01  -8.9944294696119920e-02  -6.1231792938456826e-02  -3.2634784019224032e-02  -3.7782337167737638e-03  2.5782315356643621e-02  5.6590334515725184e-02  8.9313305212110200e-02  1.2475480017866668e-01  1.6384624424847860e-01  2.0761448052287695e-01  2.5712645856352884e-01  3.1341758394172026e-01  3.7741389037960416e-01  4.4985923854919913e-01  5.3125718171054714e-01  6.2183372574257179e-01  7.2152309663179082e-01  8.2997488265954489e-01  9.4657868950607948e-01  1.0704992923974443e+00  1.2007205536751655e+00  1.3360936709768285e+00  1.4753866519856234e+00  1.6173427916500269e+00  1.7607573471839733e+00  1.9045885918882450e+00  2.0481004639689315e+00  -2.1647050391475418e+00  -1.9608491298560342e+00  -1.7677964652588651e+00  -1.5890834848563631e+00  -1.4289576224591496e+00  -1.2923262660913795e+00  -1.1744805909581884e+00  -1.0700965472562785e+00  -9.7524765060204288e-01  -8.8760526693100672e-01  -8.0598274188337393e-01  -7.2979021691874491e-01  -6.5865166459172664e-01  -5.9221665075664787e-01  -5.3010307455610772e-01  -4.7190113472991829e-01  -4.1719480496822692e-01  -3.6557955712990625e-01  -3.1667124789633416e-01  -2.7010787730560554e-01  -2.2554742525578231e-01  -1.8266436405622125e-01  -1.4114628380746019e-01  -1.0069095529444483e-01  -6.1003188771691919e-02  -2.1790016370088913e-02  1.7247851046202984e-02  5.6430342056852802e-02  9.6119181882724974e-02  1.3674478996034475e-01  1.7883483283595533e-01  2.2303753170632348e-01  2.7013148838047557e-01  3.2101491881705002e-01  3.7667087118874804e-01  4.3811023815951883e-01  5.0629950219381836e-01  5.8208357264051169e-01  6.6611486229081596e-01  7.5879794095184372e-01  8.6025549561441683e-01  9.7031709628621099e-01  1.0885285199613526e+00  1.2141773420922199e+00  1.3463278278810673e+00  1.4838642663367443e+00  1.6255402042680005e+00  1.7700330304923471e+00  1.9160136701252113e+00  2.0622400757434312e+00  2.2076861593615402e+00  -2.4331526113593274e+00  -2.2215999942014646e+00  -2.0188063548187611e+00  -1.8270531640630541e+00  -1.6494311932259955e+00  -1.4897259814989339e+00  -1.3524231924158765e+00  -1.2328818233932730e+00  -1.1258986486230569e+00  -1.0276727818386542e+00  -9.3597796523585663e-01  -8.4969955366947347e-01  -7.6829467403958662e-01  -6.9141847319751981e-01  -6.1874383555233481e-01  -5.4990908808207739e-01  -4.8452418729717656e-01  -4.2219263072706575e-01  -3.6252878218818180e-01  -3.0516619201813816e-01  -2.4975897701456842e-01  -1.9597958649867342e-01  -1.4351552397938105e-01  -9.2066352407730631e-02  -4.1341167044693101e-02  8.9442398042780535e-03  5.9072082370526517e-02  1.0933120070287175e-01  1.6003151816986536e-01  2.1152514547569556e-01  2.6423269924735365e-01  3.1867044741662948e-01  3.7547124354774986e-01  4.3539114827929903e-01  4.9929505569000526e-01  5.6811854140295415e-01  6.4280842807494609e-01  7.2424954959829846e-01  8.1318831956571369e-01  9.1016412622342679e-01  1.0154573998367855e+00  1.1290593049241746e+00  1.2506636541493710e+00  1.3796780441380896e+00  1.5152497475681370e+00  1.6563003202768709e+00  1.8015704439650522e+00  1.9496759517463134e+00  2.0991775692454415e+00  2.2486742279395044e+00  2.3969233958753060e+00  -2.6950605515752160e+00  -2.4770241245990272e+00  -2.2668079785915043e+00  -2.0657940787699589e+00  -1.8758359590840803e+00  -1.6995768266061293e+00  -1.5403718376644151e+00  -1.4023345659486319e+00  -1.2809462437847021e+00  -1.1711690054319770e+00  -1.0693560798397233e+00  -9.7339745075936923e-01  -8.8225475892962868e-01  -7.9543196552613837e-01  -7.1261424433704135e-01  -6.3349715997961009e-01  -5.5773952300793139e-01  -4.8497137948549701e-01  -4.1481584398046090e-01  -3.4690566577849552e-01  -2.8089084001415809e-01  -2.1643965037945437e-01  -1.5323651756287562e-01  -9.0979116282346242e-02  -2.9375911039569734e-02  3.1855899253980337e-02  9.2992967863825909e-02  1.5431056349771832e-01  2.1609151087012296e-01  2.7864101470346442e-01  3.4230779847197856e-01  4.0750966919419385e-01  4.7475873299718546e-01  5.4467907836273444e-01  6.1800904720109961e-01  6.9558201235571149e-01  7.7828373393014649e-01  8.6698967546964456e-01  9.6249042462481782e-01  1.0654160635089591e+00  1.1761702273648300e+00  1.2948819167026158e+00  1.4213789090906381e+00  1.5551822914407389e+00  1.6955186425182858e+00  1.8413462577132598e+00  1.9913921008256725e+00  2.1442053181485372e+00  2.2982324163958370e+00  2.4519174622519095e+00  2.6038315189611625e+00  -2.9427782024784856e+00  -2.7188515383218186e+00  -2.5024108448059943e+00  -2.2944145123869246e+00  -2.0958258837394625e+00  -1.9080705133789331e+00  -1.7333826040207396e+00  -1.5747436467230100e+00  -1.4359530837134535e+00  -1.3126646635895480e+00  -1.2000405303893711e+00  -1.0946063064694378e+00  -9.9437431822023969e-01  -8.9838206150601330e-01  -8.0617785197602998e-01  -7.1747475683592743e-01  -6.3198987051557254e-01  -5.4940198203431712e-01  -4.6936074288794366e-01  -3.9150791149308412e-01  -3.1549290716071576e-01  -2.4097970100061097e-01  -1.6764766927272196e-01  -9.5189733978061367e-02  -2.3310060699056855e-02  4.8277780246846237e-02  1.1985243417247339e-01  1.9168727745658659e-01  2.6405552743090238e-01  3.3723982370230032e-01  4.1154765390755715e-01  4.8733254281512334e-01  5.6501854101030602e-01  6.4512279049291976e-01  7.2826886965082027e-01  8.1518338958986758e-01  9.0667056639248667e-01  1.0035639243073677e+00  1.1066595742927754e+00  1.2166399346262702e+00  1.3339988700908090e+00  1.4589784316345691e+00  1.5915241353471683e+00  1.7312613271615178e+00  1.8774913930908264e+00  2.0292050564731876e+00  2.1851120966883211e+00  2.3436891647007765e+00  2.5032566415164546e+00  2.6620911755031598e+00  2.8185713550713443e+00  -3.1721948081857536e+00  -2.9427313045690013e+00  -2.7206461755422171e+00  -2.5068293290342774e+00  -2.3018170003976857e+00  -2.1061547541595576e+00  -1.9208863396411937e+00  -1.7479035860177832e+00  -1.5898795744934200e+00  -1.4503520677517441e+00  -1.3251855969141653e+00  -1.2097647353459178e+00  -1.1007966317151221e+00  -9.9641666390710704e-01  -8.9573528768091504e-01  -7.9834190075293676e-01  -7.0397515369807340e-01  -6.1237232110913731e-01  -5.2323118886959308e-01  -4.3621977810586643e-01  -3.5099661909516328e-01  -2.6722519730286692e-01  -1.8458024165729425e-01  -1.0274860819619831e-01  -2.1427928947513841e-02  5.9674979091777706e-02  1.4084533595394982e-01  2.2236175100698871e-01  3.0449897260188641e-01  3.8753372398694291e-01  4.7175527204781548e-01  5.5748163375441540e-01  6.4508069188917250e-01  7.3499308427906895e-01  8.2775117485492422e-01  9.2398677085340764e-01  1.0244205791674561e+00  1.1298291558077698e+00  1.2409897957469389e+00  1.3586089847838192e+00  1.4832439501133607e+00  1.6152281801794106e+00  1.7546102021161325e+00  1.9011112377214876e+00  2.0541033450403168e+00  2.2126073768556513e+00  2.3753110705695044e+00  2.5406121269735906e+00  2.7066938662855682e+00  2.8716465433051175e+00  3.0336347968707398e+00  -3.3817136516972890e+00  -3.1470277211498625e+00  -2.9196400447904485e+00  -2.7005540613527321e+00  -2.4902225381857557e+00  -2.2887599812118231e+00  -2.0963468393252125e+00  -1.9137220184534287e+00  -1.7425101829079861e+00  -1.5851341858698562e+00  -1.4449085690750438e+00  -1.3179327824624760e+00  -1.1998257011288855e+00  -1.0874789482570497e+00  -9.7914892138994092e-01  -8.7401540772735942e-01  -7.7170565718754813e-01  -6.7198165027515699e-01  -5.7459924724406919e-01  -4.7927369205930687e-01  -3.8568941302931037e-01  -2.9351912671559360e-01  -2.0243723322657831e-01  -1.1212570938345863e-01  -2.2275259630729745e-02  6.7415361339270868e-02  1.5724020282331494e-01  2.4748686853463395e-01  3.3843790740559632e-01  4.3037421175660673e-01  5.2358200507194474e-01  6.1836470671229515e-01  7.1505997065700000e-01  8.1406040389900558e-01  9.1583409511356351e-01  1.0209388176433856e+00  1.1300226535188835e+00  1.2438047474081178e+00  1.3630331864912151e+00  1.4884218930633082e+00  1.6205733261131037e+00  1.7598970066953359e+00  1.9065343243272042e+00  2.0602978528870608e+00  2.2206299026079899e+00  2.3865824651707701e+00  2.5568210878197402e+00  2.7296589504525910e+00  2.9031325690169769e+00  3.0751293037198004e+00  3.2435732471747207e+00  -3.5713079044270875e+00  -3.3317440009822907e+00  -3.0993584126519140e+00  -2.8753234489007338e+00  -2.6601826822019268e+00  -2.4539509364445702e+00  -2.2563786949136202e+00  -2.0673673767224079e+00  -1.8874365458047522e+00  -1.7180101332447162e+00  -1.5613027897824492e+00  -1.4204284109639465e+00  -1.2917336333849150e+00  -1.1710764968972502e+00  -1.0555329166540972e+00  -9.4347746564418256e-01  -8.3415576999599428e-01  -7.2722990942337229e-01  -6.2248283270459204e-01  -5.1968692864352684e-01  -4.1857269014462084e-01  -3.1883831470387736e-01  -2.2016761572131124e-01  -1.2224253487196619e-01  -2.4748879644078851e-02  7.2622063856081498e-02  1.7017347118113324e-01  2.6820321097720490e-01  3.6700441723138805e-01  4.6686734808153674e-01  5.6808391149862358e-01  6.7095621206415013e-01  7.7580990855107912e-01  8.8301194253954640e-01  9.9299028964660907e-01  1.1062511131615764e+00  1.2233868109746928e+00  1.3450679370769889e+00  1.4720136138376034e+00  1.6049388282581816e+00  1.7444819685722182e+00  1.8911204236787464e+00  2.0450844731611162e+00  2.2062793919896531e+00  2.3742234454985294e+00  2.5480072644863667e+00  2.7262802124262704e+00  2.9072726701311815e+00  3.0888676292343522e+00  3.2687359204539490e+00  3.4445382784632677e+00  -3.7418037685267422e+00  -3.4977385231859306e+00  -3.2606909356279132e+00  -3.0319950679444876e+00  -2.8123365803948390e+00  -2.6017969548498221e+00  -2.4000148723573993e+00  -2.2064705154638182e+00  -2.0208808710428081e+00  -1.8436211629464734e+00  -1.6759625880465407e+00  -1.5199358003146277e+00  -1.3784635848242612e+00  -1.2481442894538328e+00  -1.1250764452895754e+00  -1.0065190954831686e+00  -8.9096226678609058e-01  -7.7771420200946173e-01  -6.6646875209793321e-01  -5.5702704999858421e-01  -4.4917528138577978e-01  -3.4265626378964559e-01  -2.3717876654055428e-01  -1.3243433868677790e-01  -2.8109155862201363e-02  7.6110188488891242e-02  1.8053450946526375e-01  2.8547130947759275e-01  3.9122465421841812e-01  4.9809599435193430e-01  6.0638700310278626e-01  7.1640570932244241e-01  8.2847691713686478e-01  9.4295707085831759e-01  1.0602522841520354e+00  1.1808362829714429e+00  1.3052629193279266e+00  1.4341664792546667e+00  1.5682431553892442e+00  1.7082093477077469e+00  1.8547366237728646e+00  2.0083680481015262e+00  2.1694245096273934e+00  2.3379114301191262e+00  2.5134358548228706e+00  2.6951428892370157e+00  2.8816809170434374e+00  3.0712081456329448e+00  3.2614570638897371e+00  3.4498733260837318e+00  3.6338358236676713e+00  -3.8944123013938632e+00  -3.6462366990515136e+00  -3.4048959389265607e+00  -3.1718616651487865e+00  -2.9479531206574889e+00  -2.7333658532234968e+00  -2.5277847973920555e+00  -2.3305728586312808e+00  -2.1410421791279162e+00  -1.9588077669727164e+00  -1.7841548093677075e+00  -1.6182299014252930e+00  -1.4628895112345177e+00  -1.3208665330959601e+00  -1.1890117204982182e+00  -1.0636642840752188e+00  -9.4226528388775266e-01  -8.2341774404980650e-01  -7.0648929283063389e-01  -5.9120209231791410e-01  -4.7737198827076083e-01  -3.6479546222813702e-01  -2.5322408583022871e-01  -1.4237362905625084e-01  -3.1939982268515271e-02  7.8389459682633861e-02  1.8892982865530752e-01  2.9999608442517622e-01  4.1190186293648440e-01  5.2495940695325805e-01  6.3948116073572703e-01  7.5578411709270554e-01  8.7419796446027442e-01  9.9507752690957363e-01  1.1188189101377473e+00  1.2458771612926192e+00  1.3767812836352855e+00  1.5121406023478967e+00  1.6526355481012589e+00  1.7989867259369086e+00  1.9518990108030994e+00  2.1119818377429889e+00  2.2796515696369632e+00  2.4550253900598040e+00  2.6378179897033642e+00  2.8272531665073402e+00  3.0220040600337357e+00  3.2201791757281897e+00  3.4193750623474375e+00  3.6168155708466192e+00  3.8095859903311386e+00  -4.0304593646259823e+00  -3.7785616938119868e+00  -3.5333113127196798e+00  -3.2962956264965029e+00  -3.0684434590027445e+00  -2.8500548162653723e+00  -2.6409044209001480e+00  -2.4403872663390813e+00  -2.2476994741683818e+00  -2.0620737385065500e+00  -1.8830826826478200e+00  -1.7109538568148919e+00  -1.5467215133884222e+00  -1.3920686649873570e+00  -1.2495355832288870e+00  -1.1162249605563022e+00  -9.8871689677471164e-01  -8.6463358969710524e-01  -7.4268858519594538e-01  -6.2230527314113993e-01  -5.0322998199127744e-01  -3.8528900242972469e-01  -2.6828489960501045e-01  -1.5197395924144955e-01  -3.6075237040167296e-02  7.9714245173727022e-02  1.9570844694719083e-01  3.1222616544921478e-01  4.2958800132294306e-01  5.4811515608243067e-01  6.6812993621437056e-01  7.8995868245683876e-01  9.1393810461955027e-01  1.0404257022757422e+00  1.1698141443501977e+00  1.3025481890004751e+00  1.4391410068110417e+00  1.5801848635860707e+00  1.7263495644277438e+00  1.8783616348799006e+00  2.0369586060666425e+00  2.2028161170380356e+00  2.3764501863802785e+00  2.5581017910767736e+00  2.7476148806780607e+00  2.9443222392005595e+00  3.1469572016689265e+00  3.3536137810269251e+00  3.5617815828363959e+00  3.7684800668505707e+00  3.9705032418549235e+00  -4.1512492114372241e+00  -3.8960050125925907e+00  -3.6472260296575230e+00  -3.4066013006635365e+00  -3.1751483010338020e+00  -2.9532478840259033e+00  -2.7407539321342771e+00  -2.5371331148236695e+00  -2.3416058456492546e+00  -2.1532953826662040e+00  -1.9714186840035561e+00  -1.7955417374751628e+00  -1.6258494933715699e+00  -1.4632661341088131e+00  -1.3092976754111700e+00  -1.1662880325282674e+00  -1.0315915101746960e+00  -9.0202955972905874e-01  -7.7540459474049239e-01  -6.5053780138080219e-01  -5.2690402980163686e-01  -4.0426883973306998e-01  -2.8246396904515020e-01  -1.6129333193037529e-01  -4.0513663524956813e-02  8.0156319379441482e-02  2.0102132367393793e-01  3.2239874244576427e-01  4.4461248791687175e-01  5.6798996322394490e-01  6.9286130782895961e-01  8.1956104901149185e-01  9.4843289619625126e-01  1.0798384165136292e+00  1.2141697778611420e+00  1.3518657139069488e+00  1.4934284050164943e+00  1.6394371843254136e+00  1.7905531643267285e+00  1.9475076103266398e+00  2.1110669068613279e+00  2.2819688548034351e+00  2.4608288422546325e+00  2.6480195687082295e+00  2.8435337126033602e+00  3.0468448384763951e+00  3.2567881825748217e+00  3.4714896054733377e+00  3.6883757366197618e+00  3.9042960064253283e+00  4.1157718251631739e+00  -4.2580040339326581e+00  -3.9997724732211575e+00  -3.7478332388420541e+00  -3.5039695453689399e+00  -3.2692745245493620e+00  -3.0441899452464245e+00  -2.8286256317288014e+00  -2.6221082727998275e+00  -2.4239181712568536e+00  -2.2332001518440112e+00  -2.0490717620853665e+00  -1.8707722735938954e+00  -1.6978780051508833e+00  -1.5305354169043515e+00  -1.3695561439257762e+00  -1.2162646161500141e+00  -1.0728051060621349e+00  -9.3678363666162412e-01  -8.0526346617345668e-01  -6.7622587115289978e-01  -5.4859610523549518e-01  -4.2189540003955533e-01  -2.9590289999115810e-01  -1.7045026906908881e-01  -4.5337780696640434e-02  7.9681609322668476e-02  2.0489286185401506e-01  3.3060483682214525e-01  4.5713999403332295e-01  5.8482850506735062e-01  7.1400569941344061e-01  8.4501232763943279e-01  9.7819792425554086e-01  1.1139278956025447e+00  1.2525946995972586e+00  1.3946327006430175e+00  1.5405350612698656e+00  1.6908694397246373e+00  1.8462874337650441e+00  2.0075209768756146e+00  2.1753578498858466e+00  2.3505888577813896e+00  2.5339216302347265e+00  2.7258606088939041e+00  2.9265593552495095e+00  3.1356595439500152e+00  3.3521405164875189e+00  3.5