<?xml version="1.0"?>
<VTKFile type="UnstructuredGrid"  version="0.1"  >
<UnstructuredGrid>
<Piece  NumberOfPoints="5101" NumberOfCells="10000">
<Points>
<DataArray  type="Float64"  NumberOfComponents="3"  format="ascii">0 0 0  0.2 0 0  0.4 0 0  0.6 0 0  0.8 0 0  1 0 0  1.2 0 0  1.4 0 0  1.6 0 0  1.8 0 0  2 0 0  2.2 0 0  2.4 0 0  2.6 0 0  2.8 0 0  3 0 0  3.2 0 0  3.4 0 0  3.6 0 0  3.8 0 0  4 0 0  4.2 0 0  4.4 0 0  4.6 0 0  4.8 0 0  5 0 0  5.2 0 0  5.4 0 0  5.6 0 0  5.8 0 0  6 0 0  6.2 0 0  6.4 0 0  6.6 0 0  6.8 0 0  7 0 0  7.2 0 0  7.4 0 0  7.6 0 0  7.8 0 0  8 0 0  8.199999999999999 0 0  8.4 0 0  8.6 0 0  8.800000000000001 0 0  9 0 0  9.199999999999999 0 0  9.4 0 0  9.6 0 0  9.800000000000001 0 0  10 0 0  0 0.2 0  0.2 0.2 0  0.4 0.2 0  0.6 0.2 0  0.8 0.2 0  1 0.2 0  1.2 0.2 0  1.4 0.2 0  1.6 0.2 0  1.8 0.2 0  2 0.2 0  2.2 0.2 0  2.4 0.2 0  2.6 0.2 0  2.8 0.2 0  3 0.2 0  3.2 0.2 0  3.4 0.2 0  3.6 0.2 0  3.8 0.2 0  4 0.2 0  4.2 0.2 0  4.4 0.2 0  4.6 0.2 0  4.8 0.2 0  5 0.2 0  5.2 0.2 0  5.4 0.2 0  5.6 0.2 0  5.8 0.2 0  6 0.2 0  6.2 0.2 0  6.4 0.2 0  6.6 0.2 0  6.8 0.2 0  7 0.2 0  7.2 0.2 0  7.4 0.2 0  7.6 0.2 0  7.8 0.2 0  8 0.2 0  8.199999999999999 0.2 0  8.4 0.2 0  8.6 0.2 0  8.800000000000001 0.2 0  9 0.2 0  9.199999999999999 0.2 0  9.4 0.2 0  9.6 0.2 0  9.800000000000001 0.2 0  10 0.2 0  0 0.4 0  0.2 0.4 0  0.4 0.4 0  0.6 0.4 0  0.8 0.4 0  1 0.4 0  1.2 0.4 0  1.4 0.4 0  1.6 0.4 0  1.8 0.4 0  2 0.4 0  2.2 0.4 0  2.4 0.4 0  2.6 0.4 0  2.8 0.4 0  3 0.4 0  3.2 0.4 0  3.4 0.4 0  3.6 0.4 0  3.8 0.4 0  4 0.4 0  4.2 0.4 0  4.4 0.4 0  4.6 0.4 0  4.8 0.4 0  5 0.4 0  5.2 0.4 0  5.4 0.4 0  5.6 0.4 0  5.8 0.4 0  6 0.4 0  6.2 0.4 0  6.4 0.4 0  6.6 0.4 0  6.8 0.4 0  7 0.4 0  7.2 0.4 0  7.4 0.4 0  7.6 0.4 0  7.8 0.4 0  8 0.4 0  8.199999999999999 0.4 0  8.4 0.4 0  8.6 0.4 0  8.800000000000001 0.4 0  9 0.4 0  9.199999999999999 0.4 0  9.4 0.4 0  9.6 0.4 0  9.800000000000001 0.4 0  10 0.4 0  0 0.6 0  0.2 0.6 0  0.4 0.6 0  0.6 0.6 0  0.8 0.6 0  1 0.6 0  1.2 0.6 0  1.4 0.6 0  1.6 0.6 0  1.8 0.6 0  2 0.6 0  2.2 0.6 0  2.4 0.6 0  2.6 0.6 0  2.8 0.6 0  3 0.6 0  3.2 0.6 0  3.4 0.6 0  3.6 0.6 0  3.8 0.6 0  4 0.6 0  4.2 0.6 0  4.4 0.6 0  4.6 0.6 0  4.8 0.6 0  5 0.6 0  5.2 0.6 0  5.4 0.6 0  5.6 0.6 0  5.8 0.6 0  6 0.6 0  6.2 0.6 0  6.4 0.6 0  6.6 0.6 0  6.8 0.6 0  7 0.6 0  7.2 0.6 0  7.4 0.6 0  7.6 0.6 0  7.8 0.6 0  8 0.6 0  8.199999999999999 0.6 0  8.4 0.6 0  8.6 0.6 0  8.800000000000001 0.6 0  9 0.6 0  9.199999999999999 0.6 0  9.4 0.6 0  9.6 0.6 0  9.800000000000001 0.6 0  10 0.6 0  0 0.8 0  0.2 0.8 0  0.4 0.8 0  0.6 0.8 0  0.8 0.8 0  1 0.8 0  1.2 0.8 0  1.4 0.8 0  1.6 0.8 0  1.8 0.8 0  2 0.8 0  2.2 0.8 0  2.4 0.8 0  2.6 0.8 0  2.8 0.8 0  3 0.8 0  3.2 0.8 0  3.4 0.8 0  3.6 0.8 0  3.8 0.8 0  4 0.8 0  4.2 0.8 0  4.4 0.8 0  4.6 0.8 0  4.8 0.8 0  5 0.8 0  5.2 0.8 0  5.4 0.8 0  5.6 0.8 0  5.8 0.8 0  6 0.8 0  6.2 0.8 0  6.4 0.8 0  6.6 0.8 0  6.8 0.8 0  7 0.8 0  7.2 0.8 0  7.4 0.8 0  7.6 0.8 0  7.8 0.8 0  8 0.8 0  8.199999999999999 0.8 0  8.4 0.8 0  8.6 0.8 0  8.800000000000001 0.8 0  9 0.8 0  9.199999999999999 0.8 0  9.4 0.8 0  9.6 0.8 0  9.800000000000001 0.8 0  10 0.8 0  0 1 0  0.2 1 0  0.4 1 0  0.6 1 0  0.8 1 0  1 1 0  1.2 1 0  1.4 1 0  1.6 1 0  1.8 1 0  2 1 0  2.2 1 0  2.4 1 0  2.6 1 0  2.8 1 0  3 1 0  3.2 1 0  3.4 1 0  3.6 1 0  3.8 1 0  4 1 0  4.2 1 0  4.4 1 0  4.6 1 0  4.8 1 0  5 1 0  5.2 1 0  5.4 1 0  5.6 1 0  5.8 1 0  6 1 0  6.2 1 0  6.4 1 0  6.6 1 0  6.8 1 0  7 1 0  7.2 1 0  7.4 1 0  7.6 1 0  7.8 1 0  8 1 0  8.199999999999999 1 0  8.4 1 0  8.6 1 0  8.800000000000001 1 0  9 1 0  9.199999999999999 1 0  9.4 1 0  9.6 1 0  9.800000000000001 1 0  10 1 0  0 1.2 0  0.2 1.2 0  0.4 1.2 0  0.6 1.2 0  0.8 1.2 0  1 1.2 0  1.2 1.2 0  1.4 1.2 0  1.6 1.2 0  1.8 1.2 0  2 1.2 0  2.2 1.2 0  2.4 1.2 0  2.6 1.2 0  2.8 1.2 0  3 1.2 0  3.2 1.2 0  3.4 1.2 0  3.6 1.2 0  3.8 1.2 0  4 1.2 0  4.2 1.2 0  4.4 1.2 0  4.6 1.2 0  4.8 1.2 0  5 1.2 0  5.2 1.2 0  5.4 1.2 0  5.6 1.2 0  5.8 1.2 0  6 1.2 0  6.2 1.2 0  6.4 1.2 0  6.6 1.2 0  6.8 1.2 0  7 1.2 0  7.2 1.2 0  7.4 1.2 0  7.6 1.2 0  7.8 1.2 0  8 1.2 0  8.199999999999999 1.2 0  8.4 1.2 0  8.6 1.2 0  8.800000000000001 1.2 0  9 1.2 0  9.199999999999999 1.2 0  9.4 1.2 0  9.6 1.2 0  9.800000000000001 1.2 0  10 1.2 0  0 1.4 0  0.2 1.4 0  0.4 1.4 0  0.6 1.4 0  0.8 1.4 0  1 1.4 0  1.2 1.4 0  1.4 1.4 0  1.6 1.4 0  1.8 1.4 0  2 1.4 0  2.2 1.4 0  2.4 1.4 0  2.6 1.4 0  2.8 1.4 0  3 1.4 0  3.2 1.4 0  3.4 1.4 0  3.6 1.4 0  3.8 1.4 0  4 1.4 0  4.2 1.4 0  4.4 1.4 0  4.6 1.4 0  4.8 1.4 0  5 1.4 0  5.2 1.4 0  5.4 1.4 0  5.6 1.4 0  5.8 1.4 0  6 1.4 0  6.2 1.4 0  6.4 1.4 0  6.6 1.4 0  6.8 1.4 0  7 1.4 0  7.2 1.4 0  7.4 1.4 0  7.6 1.4 0  7.8 1.4 0  8 1.4 0  8.199999999999999 1.4 0  8.4 1.4 0  8.6 1.4 0  8.800000000000001 1.4 0  9 1.4 0  9.199999999999999 1.4 0  9.4 1.4 0  9.6 1.4 0  9.800000000000001 1.4 0  10 1.4 0  0 1.6 0  0.2 1.6 0  0.4 1.6 0  0.6 1.6 0  0.8 1.6 0  1 1.6 0  1.2 1.6 0  1.4 1.6 0  1.6 1.6 0  1.8 1.6 0  2 1.6 0  2.2 1.6 0  2.4 1.6 0  2.6 1.6 0  2.8 1.6 0  3 1.6 0  3.2 1.6 0  3.4 1.6 0  3.6 1.6 0  3.8 1.6 0  4 1.6 0  4.2 1.6 0  4.4 1.6 0  4.6 1.6 0  4.8 1.6 0  5 1.6 0  5.2 1.6 0  5.4 1.6 0  5.6 1.6 0  5.8 1.6 0  6 1.6 0  6.2 1.6 0  6.4 1.6 0  6.6 1.6 0  6.8 1.6 0  7 1.6 0  7.2 1.6 0  7.4 1.6 0  7.6 1.6 0  7.8 1.6 0  8 1.6 0  8.199999999999999 1.6 0  8.4 1.6 0  8.6 1.6 0  8.800000000000001 1.6 0  9 1.6 0  9.199999999999999 1.6 0  9.4 1.6 0  9.6 1.6 0  9.800000000000001 1.6 0  10 1.6 0  0 1.8 0  0.2 1.8 0  0.4 1.8 0  0.6 1.8 0  0.8 1.8 0  1 1.8 0  1.2 1.8 0  1.4 1.8 0  1.6 1.8 0  1.8 1.8 0  2 1.8 0  2.2 1.8 0  2.4 1.8 0  2.6 1.8 0  2.8 1.8 0  3 1.8 0  3.2 1.8 0  3.4 1.8 0  3.6 1.8 0  3.8 1.8 0  4 1.8 0  4.2 1.8 0  4.4 1.8 0  4.6 1.8 0  4.8 1.8 0  5 1.8 0  5.2 1.8 0  5.4 1.8 0  5.6 1.8 0  5.8 1.8 0  6 1.8 0  6.2 1.8 0  6.4 1.8 0  6.6 1.8 0  6.8 1.8 0  7 1.8 0  7.2 1.8 0  7.4 1.8 0  7.6 1.8 0  7.8 1.8 0  8 1.8 0  8.199999999999999 1.8 0  8.4 1.8 0  8.6 1.8 0  8.800000000000001 1.8 0  9 1.8 0  9.199999999999999 1.8 0  9.4 1.8 0  9.6 1.8 0  9.800000000000001 1.8 0  10 1.8 0  0 2 0  0.2 2 0  0.4 2 0  0.6 2 0  0.8 2 0  1 2 0  1.2 2 0  1.4 2 0  1.6 2 0  1.8 2 0  2 2 0  2.2 2 0  2.4 2 0  2.6 2 0  2.8 2 0  3 2 0  3.2 2 0  3.4 2 0  3.6 2 0  3.8 2 0  4 2 0  4.2 2 0  4.4 2 0  4.6 2 0  4.8 2 0  5 2 0  5.2 2 0  5.4 2 0  5.6 2 0  5.8 2 0  6 2 0  6.2 2 0  6.4 2 0  6.6 2 0  6.8 2 0  7 2 0  7.2 2 0  7.4 2 0  7.6 2 0  7.8 2 0  8 2 0  8.199999999999999 2 0  8.4 2 0  8.6 2 0  8.800000000000001 2 0  9 2 0  9.199999999999999 2 0  9.4 2 0  9.6 2 0  9.800000000000001 2 0  10 2 0  0 2.2 0  0.2 2.2 0  0.4 2.2 0  0.6 2.2 0  0.8 2.2 0  1 2.2 0  1.2 2.2 0  1.4 2.2 0  1.6 2.2 0  1.8 2.2 0  2 2.2 0  2.2 2.2 0  2.4 2.2 0  2.6 2.2 0  2.8 2.2 0  3 2.2 0  3.2 2.2 0  3.4 2.2 0  3.6 2.2 0  3.8 2.2 0  4 2.2 0  4.2 2.2 0  4.4 2.2 0  4.6 2.2 0  4.8 2.2 0  5 2.2 0  5.2 2.2 0  5.4 2.2 0  5.6 2.2 0  5.8 2.2 0  6 2.2 0  6.2 2.2 0  6.4 2.2 0  6.6 2.2 0  6.8 2.2 0  7 2.2 0  7.2 2.2 0  7.4 2.2 0  7.6 2.2 0  7.8 2.2 0  8 2.2 0  8.199999999999999 2.2 0  8.4 2.2 0  8.6 2.2 0  8.800000000000001 2.2 0  9 2.2 0  9.199999999999999 2.2 0  9.4 2.2 0  9.6 2.2 0  9.800000000000001 2.2 0  10 2.2 0  0 2.4 0  0.2 2.4 0  0.4 2.4 0  0.6 2.4 0  0.8 2.4 0  1 2.4 0  1.2 2.4 0  1.4 2.4 0  1.6 2.4 0  1.8 2.4 0  2 2.4 0  2.2 2.4 0  2.4 2.4 0  2.6 2.4 0  2.8 2.4 0  3 2.4 0  3.2 2.4 0  3.4 2.4 0  3.6 2.4 0  3.8 2.4 0  4 2.4 0  4.2 2.4 0  4.4 2.4 0  4.6 2.4 0  4.8 2.4 0  5 2.4 0  5.2 2.4 0  5.4 2.4 0  5.6 2.4 0  5.8 2.4 0  6 2.4 0  6.2 2.4 0  6.4 2.4 0  6.6 2.4 0  6.8 2.4 0  7 2.4 0  7.2 2.4 0  7.4 2.4 0  7.6 2.4 0  7.8 2.4 0  8 2.4 0  8.199999999999999 2.4 0  8.4 2.4 0  8.6 2.4 0  8.800000000000001 2.4 0  9 2.4 0  9.199999999999999 2.4 0  9.4 2.4 0  9.6 2.4 0  9.800000000000001 2.4 0  10 2.4 0  0 2.6 0  0.2 2.6 0  0.4 2.6 0  0.6 2.6 0  0.8 2.6 0  1 2.6 0  1.2 2.6 0  1.4 2.6 0  1.6 2.6 0  1.8 2.6 0  2 2.6 0  2.2 2.6 0  2.4 2.6 0  2.6 2.6 0  2.8 2.6 0  3 2.6 0  3.2 2.6 0  3.4 2.6 0  3.6 2.6 0  3.8 2.6 0  4 2.6 0  4.2 2.6 0  4.4 2.6 0  4.6 2.6 0  4.8 2.6 0  5 2.6 0  5.2 2.6 0  5.4 2.6 0  5.6 2.6 0  5.8 2.6 0  6 2.6 0  6.2 2.6 0  6.4 2.6 0  6.6 2.6 0  6.8 2.6 0  7 2.6 0  7.2 2.6 0  7.4 2.6 0  7.6 2.6 0  7.8 2.6 0  8 2.6 0  8.199999999999999 2.6 0  8.4 2.6 0  8.6 2.6 0  8.800000000000001 2.6 0  9 2.6 0  9.199999999999999 2.6 0  9.4 2.6 0  9.6 2.6 0  9.800000000000001 2.6 0  10 2.6 0  0 2.8 0  0.2 2.8 0  0.4 2.8 0  0.6 2.8 0  0.8 2.8 0  1 2.8 0  1.2 2.8 0  1.4 2.8 0  1.6 2.8 0  1.8 2.8 0  2 2.8 0  2.2 2.8 0  2.4 2.8 0  2.6 2.8 0  2.8 2.8 0  3 2.8 0  3.2 2.8 0  3.4 2.8 0  3.6 2.8 0  3.8 2.8 0  4 2.8 0  4.2 2.8 0  4.4 2.8 0  4.6 2.8 0  4.8 2.8 0  5 2.8 0  5.2 2.8 0  5.4 2.8 0  5.6 2.8 0  5.8 2.8 0  6 2.8 0  6.2 2.8 0  6.4 2.8 0  6.6 2.8 0  6.8 2.8 0  7 2.8 0  7.2 2.8 0  7.4 2.8 0  7.6 2.8 0  7.8 2.8 0  8 2.8 0  8.199999999999999 2.8 0  8.4 2.8 0  8.6 2.8 0  8.800000000000001 2.8 0  9 2.8 0  9.199999999999999 2.8 0  9.4 2.8 0  9.6 2.8 0  9.800000000000001 2.8 0  10 2.8 0  0 3 0  0.2 3 0  0.4 3 0  0.6 3 0  0.8 3 0  1 3 0  1.2 3 0  1.4 3 0  1.6 3 0  1.8 3 0  2 3 0  2.2 3 0  2.4 3 0  2.6 3 0  2.8 3 0  3 3 0  3.2 3 0  3.4 3 0  3.6 3 0  3.8 3 0  4 3 0  4.2 3 0  4.4 3 0  4.6 3 0  4.8 3 0  5 3 0  5.2 3 0  5.4 3 0  5.6 3 0  5.8 3 0  6 3 0  6.2 3 0  6.4 3 0  6.6 3 0  6.8 3 0  7 3 0  7.2 3 0  7.4 3 0  7.6 3 0  7.8 3 0  8 3 0  8.199999999999999 3 0  8.4 3 0  8.6 3 0  8.800000000000001 3 0  9 3 0  9.199999999999999 3 0  9.4 3 0  9.6 3 0  9.800000000000001 3 0  10 3 0  0 3.2 0  0.2 3.2 0  0.4 3.2 0  0.6 3.2 0  0.8 3.2 0  1 3.2 0  1.2 3.2 0  1.4 3.2 0  1.6 3.2 0  1.8 3.2 0  2 3.2 0  2.2 3.2 0  2.4 3.2 0  2.6 3.2 0  2.8 3.2 0  3 3.2 0  3.2 3.2 0  3.4 3.2 0  3.6 3.2 0  3.8 3.2 0  4 3.2 0  4.2 3.2 0  4.4 3.2 0  4.6 3.2 0  4.8 3.2 0  5 3.2 0  5.2 3.2 0  5.4 3.2 0  5.6 3.2 0  5.8 3.2 0  6 3.2 0  6.2 3.2 0  6.4 3.2 0  6.6 3.2 0  6.8 3.2 0  7 3.2 0  7.2 3.2 0  7.4 3.2 0  7.6 3.2 0  7.8 3.2 0  8 3.2 0  8.199999999999999 3.2 0  8.4 3.2 0  8.6 3.2 0  8.800000000000001 3.2 0  9 3.2 0  9.199999999999999 3.2 0  9.4 3.2 0  9.6 3.2 0  9.800000000000001 3.2 0  10 3.2 0  0 3.4 0  0.2 3.4 0  0.4 3.4 0  0.6 3.4 0  0.8 3.4 0  1 
[...]
<PointData  Scalars="f_5"> 
<DataArray  type="Float64"  Name="f_5"  format="ascii">4.1357558510672077e-02  3.3314391716346003e-01  4.9984475313387278e-01  6.1741643101866117e-01  7.0935299732175572e-01  7.8642450322777258e-01  8.5578868282520126e-01  9.2278468632244770e-01  9.9203960082758857e-01  1.0680188340490382e+00  1.1554189936078827e+00  1.2595749505817482e+00  1.3869197919686911e+00  1.5435768863172596e+00  1.7165687384650625e+00  1.8092327287579519e+00  1.7573640440096301e+00  1.8360145687576406e+00  1.7975086642591045e+00  1.8126876978159108e+00  1.8178409446852606e+00  1.8186040603003133e+00  1.8172341854756959e+00  1.8154242050437437e+00  1.8143389546446032e+00  1.8146397351027492e+00  1.8164716102057128e+00  1.8194802209435530e+00  1.8228645440645861e+00  1.8254323188770645e+00  1.8255781619595901e+00  1.8212192879266027e+00  1.8070078225931732e+00  1.8486604517577478e+00  1.7654560853726182e+00  1.8223084493935209e+00  1.7346512071455524e+00  1.5616036459104505e+00  1.4035982508542271e+00  1.2748768326186182e+00  1.1693877628463840e+00  1.0806637135912971e+00  1.0033555965245371e+00  9.3276466916304268e-01  8.6442573484216967e-01  7.9371123184967241e-01  7.1528008088452599e-01  6.2197133235766355e-01  5.0300901732832137e-01  3.3487978163032778e-01  4.1791174251564436e-02  1.9991905268888999e-02  2.0978394409935641e-01  3.4734614494973298e-01  4.5719283944367478e-01  5.4404240448150865e-01  6.1840359472100981e-01  6.8592852192915443e-01  7.5166216394509355e-01  8.1999173591696128e-01  8.9524486603513787e-01  9.8202621298402337e-01  1.0852736289224341e+00  1.2110121074559490e+00  1.3746352966773610e+00  1.5915129017168694e+00  1.7606022213745502e+00  1.7143820947541213e+00  1.6749163912853928e+00  1.5930176540371126e+00  1.5894055313921076e+00  1.5912677611945985e+00  1.5914135349271867e+00  1.5901906868921754e+00  1.5886661854529620e+00  1.5877170695152303e+00  1.5878733499394950e+00  1.5892667984468494e+00  1.5916296364664777e+00  1.5943416811889475e+00  1.5965126078205620e+00  1.5971457567847280e+00  1.5960443560129445e+00  1.6006935171612577e+00  1.6867392887687489e+00  1.7238973790012371e+00  1.7771654558334855e+00  1.6117546569255286e+00  1.3931177618103290e+00  1.2276025882528900e+00  1.1004933510335306e+00  9.9592899530596468e-01  9.0781881168435696e-01  8.3123104043861618e-01  7.6156118992401156e-01  6.9448267441980727e-01  6.2560800155411267e-01  5.4989003989039154e-01  4.6167081224356366e-01  3.5044186320555976e-01  2.1143987227620673e-01  2.0289263657557507e-02  1.0354851813169853e-02  1.4030460314347543e-01  2.4701097209403083e-01  3.3799172415054451e-01  4.1492249567347500e-01  4.8268709056918374e-01  5.4574670842100703e-01  6.0815905362658051e-01  6.7381437992620818e-01  7.4667477419549921e-01  8.3103098892439287e-01  9.3164939015026271e-01  1.0546053909410900e+00  1.2136965015391870e+00  1.4210989097894955e+00  1.5894637190788201e+00  1.5630326955148419e+00  1.5206012649628025e+00  1.4813413108917373e+00  1.4831854118337233e+00  1.4868701372669964e+00  1.4878294367242573e+00  1.4870898189043174e+00  1.4858764649239513e+00  1.4851205198554476e+00  1.4853836032185792e+00  1.4868170314894424e+00  1.4891552612597514e+00  1.4917555372443638e+00  1.4936683749313868e+00  1.4937272440782048e+00  1.4910267707677001e+00  1.4901262502969130e+00  1.5337059392020609e+00  1.5732428521992521e+00  1.6063002092539216e+00  1.4413628052019081e+00  1.2325339827032638e+00  1.0716516580425675e+00  9.4729090559413676e-01  8.4530834402670929e-01  7.5956954039319247e-01  6.8531766315178078e-01  6.1826840234063873e-01  5.5446374422081901e-01  4.9001372192752662e-01  4.2085715335743545e-01  3.4252590462240023e-01  2.5013432168250610e-01  1.4195675576056455e-01  1.0672729780966147e-02  7.1175666713779104e-03  9.7529766290600464e-02  1.7689257501141495e-01  2.4953770141601359e-01  3.1411646105858687e-01  3.7344184475179781e-01  4.3035438672403020e-01  4.8801468572422868e-01  5.4969237268092397e-01  6.1888180058445652e-01  6.9945887600612788e-01  7.9576418165885765e-01  9.1342205198894255e-01  1.0648383442928429e+00  1.2591621336972023e+00  1.4212558373837962e+00  1.4163840628383444e+00  1.3641568133297719e+00  1.3867475632935768e+00  1.3823964663935460e+00  1.3867997325855717e+00  1.3887417175686778e+00  1.3887670270227745e+00  1.3880847143609234e+00  1.3876537077074456e+00  1.3880644362492982e+00  1.3894931150482401e+00  1.3916869785714376e+00  1.3939928555872594e+00  1.3954280674568269e+00  1.3948168257009048e+00  1.3916262119936669e+00  1.3961004009237081e+00  1.3770864624449668e+00  1.4279408170105616e+00  1.4387047980331400e+00  1.2799695467673362e+00  1.0845678356835269e+00  9.3141949255504053e-01  8.1229495885580316e-01  7.1453237931875124e-01  6.3246469787179083e-01  5.6177556485359315e-01  4.9860383522097096e-01  4.3946226680694106e-01  3.8108124576519309e-01  3.2029462552817550e-01  2.5425166023834922e-01  1.8013579591588902e-01  9.9243514495699625e-02  7.4571626845462650e-03  4.3233364204701627e-03  6.8315026077922836e-02  1.2644202205007526e-01  1.8253256514300850e-01  2.3496842994060044e-01  2.8521051805958558e-01  3.3514007157958092e-01  3.8714088982330086e-01  4.4389535414184744e-01  5.0840680987461373e-01  5.8408833075554834e-01  6.7480817913871649e-01  7.8562732968037630e-01  9.2720014464386302e-01  1.1061248489024200e+00  1.2601382607167768e+00  1.2759825668798228e+00  1.2350290860223696e+00  1.3014295638940339e+00  1.2840250144913030e+00  1.2885820287991121e+00  1.2919323145257617e+00  1.2931662252069558e+00  1.2933466816122197e+00  1.2934465598918463e+00  1.2940809334245438e+00  1.2954518001090403e+00  1.2973276141121159e+00  1.2990548652511726e+00  1.2996334319267520e+00  1.2980202919566315e+00  1.2951158739264224e+00  1.3127218373082854e+00  1.2489626209250726e+00  1.2892075816436586e+00  1.2787826840909591e+00  1.1282498382178867e+00  9.4851656719236876e-01  8.0518762474265071e-01  6.9275382652492901e-01  6.0040406093696053e-01  5.2305593549245155e-01  4.5687894350867192e-01  3.9848168064817574e-01  3.4486884520615579e-01  2.9335554126047875e-01  2.4154802006768750e-01  1.8755009057810793e-01  1.2989363668174653e-01  7.0138360475648781e-02  4.6947031612445530e-03  2.2593820014759312e-03  4.6856690458447404e-02  8.8296548658160473e-02  1.3041087540583929e-01  1.7168591857332702e-01  2.1304044882742407e-01  2.5575354581401094e-01  3.0163962693113694e-01  3.5287734413057265e-01  4.1200802520544333e-01  4.8198815692435532e-01  5.6621590892013285e-01  6.6910239920055181e-01  7.9941777119824553e-01  9.6250750154550835e-01  1.1097593556349434e+00  1.1476661527644618e+00  1.1271352453199308e+00  1.1975927595640397e+00  1.1825054070862044e+00  1.1900065302269449e+00  1.1958620392247392e+00  1.1989036066611962e+00  1.2003546242077392e+00  1.2012452936105837e+00  1.2022082943801959e+00  1.2034635095942281e+00  1.2048056379227441e+00  1.2055879302245005e+00  1.2047518179712629e+00  1.2010899854243156e+00  1.1957423774050975e+00  1.2104264130629401e+00  1.1419169874065054e+00  1.1635019342961186e+00  1.1309943781563689e+00  9.8713873756218307e-01  8.2320114751725038e-01  6.9093388354533447e-01  5.8615088782090063e-01  5.0001182522237131e-01  4.2810666060046848e-01  3.6708175401254672e-01  3.1400318368478886e-01  2.6633371187508315e-01  2.2188564982955172e-01  1.7882712753506147e-01  1.3585680006219167e-01  9.2043935245593136e-02  4.8833787200503041e-02  2.6719995349385132e-03  4.8837817934928752e-04  3.0192968107025812e-02  5.8176390049456503e-02  8.8451740042285565e-02  1.1974582461894867e-01  1.5273718553347701e-01  1.8835206359716961e-01  2.2799243490650645e-01  2.7341953074640413e-01  3.2675579771997065e-01  3.9052562163242116e-01  4.6768318510111023e-01  5.6196869952907147e-01  6.8026156471043564e-01  8.2788647250441971e-01  9.7100998620570123e-01  1.0306325724912784e+00  1.0173725975563754e+00  1.0418048473592818e+00  1.0839195920855031e+00  1.0928954545011722e+00  1.1016105353858379e+00  1.1069590576308448e+00  1.1100938142684871e+00  1.1120769889794040e+00  1.1135285656643399e+00  1.1146617814798661e+00  1.1152928189180438e+00  1.1147933464983986e+00  1.1120455055930369e+00  1.1058162487715428e+00  1.0982469241525390e+00  1.0626748663687360e+00  1.0381020841072062e+00  1.0520371075211972e+00  9.9724881774941287e-01  8.5654904196965354e-01  7.0751126377445028e-01  5.8683102110060348e-01  4.9019844360747755e-01  4.1072186087009860e-01  3.4467964786124983e-01  2.8915742355397001e-01  2.4164498444165833e-01  2.0001299749829218e-01  1.6247922934421696e-01  1.2761266844859537e-01  9.4454691209398353e-02  6.2308555976216540e-02  3.2365701392173596e-02  9.5152227313758471e-04  -1.1127918339999400e-03  1.6571572655808713e-02  3.3245720605168123e-02  5.3286983794182577e-02  7.5618784685078377e-02  1.0082850716558375e-01  1.2962432469383989e-01  1.6310100378655007e-01  2.0266623566433550e-01  2.5005493919165833e-01  3.0737154532470784e-01  3.7713148385681744e-01  4.6242736313706517e-01  5.6832778940190198e-01  7.0030793041203265e-01  8.3988036144567968e-01  9.2527095555603778e-01  9.3278196472166708e-01  9.3460979043750914e-01  9.7684814775248363e-01  9.9901210545502495e-01  1.0103412482304155e+00  1.0184475341600951e+00  1.0236674101031200e+00  1.0270730660140781e+00  1.0292716856278727e+00  1.0304294412963926e+00  1.0303280395563865e+00  1.0282792314582618e+00  1.0231077760748948e+00  1.0138363946363087e+00  9.9421375922691413e-01  9.6312456847246330e-01  9.6221672962653015e-01  9.5557573396653006e-01  8.7339387442556504e-01  7.3431604573551057e-01  5.9995252720223735e-01  4.9102290103388324e-01  4.0277258330456767e-01  3.3016880353430850e-01  2.7015067780803498e-01  2.2022878357405773e-01  1.7829546958520098e-01  1.4258995585540410e-01  1.1166491953846183e-01  8.4379989903639846e-02  5.9981286272465711e-02  3.7855814287137066e-02  1.8981079691542824e-02  -5.8959500558371019e-04  -2.6461801332403200e-03  4.8515005993856313e-03  1.1532117372442566e-02  2.2404067443126216e-02  3.6513636399269182e-02  5.4432615191784620e-02  7.6728488835550668e-02  1.0425534578589918e-01  1.3810554468566000e-01  1.7963479408296965e-01  2.3051096084687966e-01  2.9277139741842217e-01  3.6888599296647701e-01  4.6234119752628794e-01  5.7778364898437407e-01  7.0908771528625225e-01  8.1693196306249272e-01  8.5922610174796166e-01  8.5981550870560963e-01  8.7194048988068207e-01  9.0200923639726793e-01  9.2238381731127994e-01  9.3341497467354617e-01  9.4102642795731417e-01  9.4621387822258862e-01  9.4954133552479614e-01  9.5108275520802021e-01  9.5048170091752615e-01  9.4696006654517528e-01  9.3894752225824674e-01  9.2460466708524847e-01  9.0790457690656390e-01  9.0260801474046692e-01  9.0104294654605810e-01  8.5793340889031100e-01  7.5057088491742496e-01  6.1777435906215095e-01  4.9899871351722658e-01  4.0177335527300567e-01  3.2198656173782947e-01  2.5626603464584730e-01  2.0219285246913080e-01  1.5774108116950339e-01  1.2121543211230067e-01  9.1206532821705030e-02  6.6555486959700080e-02  4.6339744236612447e-02  2.9929185024505572e-02  1.6717937300979032e-02  7.5387122603090785e-03  -2.0520742053996145e-03  -4.1883828743930372e-03  -5.7778465030473517e-03  -8.4399898305103100e-03  -6.1608721869893654e-03  1.5334862341698916e-04  1.1111990814186082e-02  2.7196849991786658e-02  4.9067889978480120e-02  7.7521908770422074e-02  1.1352178854615320e-01  1.5825410446147498e-01  2.1320343330854055e-01  2.8019874923945376e-01  3.6152916193440321e-01  4.6024730119292812e-01  5.7641951144586168e-01  6.9238225637626460e-01  7.7089003226061559e-01  7.9697307381496907e-01  7.9995199631736869e-01  8.1155086210407856e-01  8.3328318598320694e-01  8.5004106428376180e-01  8.6034055707421009e-01  8.6757966273947495e-01  8.7258527054685908e-01  8.7532479158203658e-01  8.7527277490027910e-01  8.7156067684246963e-01  8.6449461684116335e-01  8.5815413771976112e-01  8.5743849059360810e-01  8.5489952741221631e-01  8.2418336538070092e-01  7.4291053553253372e-01  6.2560287707370565e-01  5.0667382744615530e-01  4.0376375570612244e-01  3.1781961886165266e-01  2.4633282008861285e-01  1.8722247490634486e-01  1.3874000489939309e-01  9.9399931185023799e-02  6.7956228252809739e-02  4.3352896192895403e-02  2.4688504503963704e-02  1.1203293768310663e-02  2.3314970745987921e-03  -2.5801832250134885e-03  -2.7738980444969356e-03  -3.5094503271242512e-03  -5.8024563517361290e-03  -1.5927539373590410e-02  -2.7829434081194000e-02  -3.3992472745053050e-02  -3.5353916802792963e-02  -3.1213611617472735e-02  -2.1120348874140212e-02  -4.5651449353619998e-03  1.8966302322864847e-02  5.0016817103927566e-02  8.9225883546606446e-02  1.3743350480238700e-01  1.9576399824941565e-01  2.6562374122947485e-01  3.4868965141775526e-01  4.4615911940208947e-01  5.5308438097306778e-01  6.4950708935303592e-01  7.0998883238478572e-01  7.3197044232976138e-01  7.3819117755224806e-01  7.4884110624667943e-01  7.6467575353430761e-01  7.7785328263672016e-01  7.8748319667875200e-01  7.9494804349584935e-01  8.0044925611743611e-01  8.0365353878953505e-01  8.0495557246344240e-01  8.0644398031959574e-01  8.0890927092079223e-01  8.0494883924497129e-01  7.7729432212519500e-01  7.1131414190846587e-01  6.1267229375786281e-01  5.0378888194686233e-01  4.0243582651650722e-01  3.1407004117233878e-01  2.3851908027964225e-01  1.7470631421153357e-01  1.2151702330583598e-01  7.7938028307940249e-02  4.3110306712359513e-02  1.6288158038726446e-02  -3.2211612158931208e-03  -1.6090294736560654e-02  -2.2971269874902469e-02  -2.4426542133434741e-02  -2.1212109684962933e-02  -1.2577630175191659e-02  -5.0252840178746814e-03  -7.4940504920960743e-03  -2.6059311425865213e-02  -4.7533185765651076e-02  -6.2324482899856794e-02  -7.1503968901123954e-02  -7.4223375608407527e-02  -6.9991645361545202e-02  -5.8398211018355919e-02  -3.9190259536830994e-02  -1.2272305112516729e-02  2.2368001392764514e-02  6.4818602148803528e-02  1.1541171197237007e-01  1.7477861887998850e-01  2.4373639646898210e-01  3.2300066304879560e-01  4.1174632079623918e-01  5.0303899500550120e-01  5.8088768171625837e-01  6.3031697508284446e-01  6.5280717468106431e-01  6.6369687451578341e-01  6.7507951563145407e-01  6.8789834303726927e-01  6.9974002168256522e-01  7.1049378767161697e-01  7.2041351570555612e-01  7.2928161579166839e-01  7.3668228891288556e-01  7.4076439144556994e-01  7.3533126688410400e-01  7.0969344995323091e-01  6.5550160664996848e-01  5.7557585796240796e-01  4.8307254855512771e-01  3.9105190502706677e-01  3.0611303538113066e-01  2.3020714027226749e-01  1.6365501194841475e-01  1.0629261281062133e-01  5.7849900799794005e-02  1.8124490840043386e-02  -1.3027434818967744e-02  -3.5796193684900300e-02  -5.0507115516235719e-02  -5.7644321248984491e-02  -5.7821238617347420e-02  -5.1675266055034377e-02  -4.0130501784878342e-02  -2.2359461768091577e-02  -6.6378914111581179e-03  -9.1896979997812041e-03  -3.6559880126248723e-02  -6.8082622059629200e-02  -9.1872326154675277e-02  -1.0915443386194279e-01  -1.1890218792011821e-01  -1.2049192490016120e-01  -1.1354203885344742e-01  -9.8011947179610259e-02  -7.4252600097149374e-02  -4.2958346390574678e-02  -4.9244527208121384e-03  3.9276629398584686e-02  8.9478953279717832e-02  1.4586838438148464e-01  2.0873107390107606e-01  2.7796632418289419e-01  3.5169671888991266e-01  4.2373529367254525e-01  4.8375428873367737e-01  5.2432389134706081e-01  5.4790157529624650e-01  5.6339977371450101e-01  5.7729006921401338e-01  5.9123015884189756e-01  6.0525489012629097e-01  6.1889594737317488e-01  6.3059771076864379e-01  6.3727091345115849e-01  6.3390001477915747e-01  6.1420058766965924e-01  5.7378115468518964e-01  5.1396574294524788e-01  4.4169788744534882e-01  3.6508318882318469e-01  2.8969983152825457e-01  2.1842574788356481e-01  1.5267053478148598e-01  9.3183579564234842e-02  4.0490307372294615e-02  -4.8291672162490322e-03  -4.2073073910763779e-02  -7.0568135386349665e-02  -8.9901197799197780e-02  -1.0005132856381346e-01  -1.0137993465795245e-01  -9.4553001918800936e-02  -8.0389121702648184e-02  -6.0038306864857977e-02  -3.2502442165634825e-02  -8.2910210979047754e-03  -1.1040187218399482e-02  -4.7654268033227774e-02  -8.9305143003165943e-02  -1.2228107809368094e-01  -1.4791448471487401e-01  -1.6491091821908677e-01  -1.7237694115017552e-01  -1.6986759452496450e-01  -1.5746681146995353e-01  -1.3591855909677139e-01  -1.0667280091702749e-01  -7.1545145894425496e-02  -3.2153922143023664e-02  1.0454449745545312e-02  5.5842196892937401e-02  1.0397094744898448e-01  1.5485895689638646e-01  2.0806350906305221e-01  2.6175118015427434e-01  3.1183625128326392e-01  3.5322726845770358e-01  3.8362223259605494e-01  4.0553292811371400e-01  4.2355688748084369e-01  4.4080625886977232e-01  4.5813902432659920e-01  4.7457753919507267e-01  4.8744796451888689e-01  4.9273868518050201e-01  4.8610079959149360e-01  4.6449681353628447e-01  4.2780034946829820e-01  3.7895176173018280e-01  3.2232926997372280e-01  2.6190018900352041e-01  2.0051656536990500e-01  1.4009121090336987e-01  8.1953532627260170e-02  2.7197992811812101e-02  -2.2982444116153782e-02  -6.7090053112080925e-02  -1.0338890162045106e-01  -1.3027655303838553e-01  -1.4672458930473009e-01  -1.5244164458576423e-01  -1.4776425819233627e-01  -1.3352279646095175e-01  -1.1085487325994792e-01  -8.1173844834527942e-02  -4.3397050551516485e-02  -9.9361705561343584e-03  -1.6570832915385914e-02  -5.7149714362109631e-02  -1.0928937503897354e-01  -1.5098648880506182e-01  -1.8468270288687721e-01  -2.0900833291468643e-01  -2.2267377970527463e-01  -2.2493837176776063e-01  -2.1564975864115885e-01  -1.9573449781418550e-01  -1.6748050958881613e-01  -1.3390537970691377e-01  -9.7809210299121790e-02  -6.1222886836813005e-02  -2.5292821363256932e-02  9.5560572267547189e-03  4.3319373404373231e-02  7.6069747047389585e-02  1.0758486583369846e-01  1.3700491411510754e-01  1.6296564617764847e-01  1.8470208413836725e-01  2.0329200200184272e-01  2.2132308112731061e-01  2.4112217694483884e-01  2.6331031358411267e-01  2.8636925308396782e-01  3.0694996103817707e-01  3.2082077981946711e-01  3.2422865945740437e-01  3.1510460322881723e-01  2.9351900186186947e-01  2.6121191994830922e-01  2.2065292396871430e-01  1.7427065526665922e-01  1.2409959846424798e-01  7.1752280557324605e-02  1.8608140787772821e-02  -3.3858942715279408e-02  -8.3738264067937301e-02  -1.2851075577365856e-01  -1.6526203912003440e-01  -1.9135471247510552e-01  -2.0518449659663099e-01  -2.0636071323462030e-01  -1.9536118104016628e-01  -1.7331776980506164e-01  -1.4188053906333009e-01  -1.0282705008024222e-01  -5.4560330384436327e-02  -1.2387281516009176e-02  -3.9520277861126191e-02  -6.1335005338660001e-02  -1.1772248271027334e-01  -1.6509730115012561e-01  -2.0441146255714510e-01  -2.3540720138712570e-01  -2.5702111962794977e-01  -2.6765922088535649e-01  -2.6517419930367658e-01  -2.4905145467050946e-01  -2.2219993702709040e-01  -1.8957205294154664e-01  -1.5573049083142132e-01  -1.2391354179436299e-01  -9.6112304988034719e-02  -7.3288665302022424e-02  -5.5650185889177035e-02  -4.2947797087874301e-02  -3.4671683861201216e-02  -3.0074172533037576e-02  -2.7972585795618628e-02  -2.6347169361326247e-02  -2.2082392502369354e-02  -1.1486085406809251e-02  8.2908574276126662e-03  3.7711290374319452e-02  7.4129979728792900e-02  1.1233310372806109e-01  1.4612807810139833e-01  1.7020169922426245e-01  1.8136881689647100e-01  1.7881203511944163e-01  1.6351677875464712e-01  1.3740346565914496e-01  1.0258293544868807e-01  6.0936528953833904e-02  1.4056323144582956e-02  -3.6508756839305587e-02  -8.8830441197288959e-02  -1.4019653745712757e-01  -1.8691613659508816e-01  -2.2458168566844244e-01  -2.4920819855962686e-01  -2.5887645460070852e-01  -2.5402923235500591e-01  -2.3611278190903945e-01  -2.0676119610935331e-01  -1.6787532875809269e-01  -1.2053050894342159e-01  -6.2023939511544481e-02  -2.4738652448433218e-02  -3.9009326945751301e-02  -4.7557295087870960e-02  -8.8827276588933551e-02  -1.3055845113966308e-01  -1.7080951575364994e-01  -2.0833307071848325e-01  -2.4154957207168165e-01 