<?xml version="1.0"?>
<VTKFile type="UnstructuredGrid"  version="0.1"  >
<UnstructuredGrid>
<Piece  NumberOfPoints="5101" NumberOfCells="10000">
<Points>
<DataArray  type="Float64"  NumberOfComponents="3"  format="ascii">0 0 0  0.2 0 0  0.4 0 0  0.6 0 0  0.8 0 0  1 0 0  1.2 0 0  1.4 0 0  1.6 0 0  1.8 0 0  2 0 0  2.2 0 0  2.4 0 0  2.6 0 0  2.8 0 0  3 0 0  3.2 0 0  3.4 0 0  3.6 0 0  3.8 0 0  4 0 0  4.2 0 0  4.4 0 0  4.6 0 0  4.8 0 0  5 0 0  5.2 0 0  5.4 0 0  5.6 0 0  5.8 0 0  6 0 0  6.2 0 0  6.4 0 0  6.6 0 0  6.8 0 0  7 0 0  7.2 0 0  7.4 0 0  7.6 0 0  7.8 0 0  8 0 0  8.199999999999999 0 0  8.4 0 0  8.6 0 0  8.800000000000001 0 0  9 0 0  9.199999999999999 0 0  9.4 0 0  9.6 0 0  9.800000000000001 0 0  10 0 0  0 0.2 0  0.2 0.2 0  0.4 0.2 0  0.6 0.2 0  0.8 0.2 0  1 0.2 0  1.2 0.2 0  1.4 0.2 0  1.6 0.2 0  1.8 0.2 0  2 0.2 0  2.2 0.2 0  2.4 0.2 0  2.6 0.2 0  2.8 0.2 0  3 0.2 0  3.2 0.2 0  3.4 0.2 0  3.6 0.2 0  3.8 0.2 0  4 0.2 0  4.2 0.2 0  4.4 0.2 0  4.6 0.2 0  4.8 0.2 0  5 0.2 0  5.2 0.2 0  5.4 0.2 0  5.6 0.2 0  5.8 0.2 0  6 0.2 0  6.2 0.2 0  6.4 0.2 0  6.6 0.2 0  6.8 0.2 0  7 0.2 0  7.2 0.2 0  7.4 0.2 0  7.6 0.2 0  7.8 0.2 0  8 0.2 0  8.199999999999999 0.2 0  8.4 0.2 0  8.6 0.2 0  8.800000000000001 0.2 0  9 0.2 0  9.199999999999999 0.2 0  9.4 0.2 0  9.6 0.2 0  9.800000000000001 0.2 0  10 0.2 0  0 0.4 0  0.2 0.4 0  0.4 0.4 0  0.6 0.4 0  0.8 0.4 0  1 0.4 0  1.2 0.4 0  1.4 0.4 0  1.6 0.4 0  1.8 0.4 0  2 0.4 0  2.2 0.4 0  2.4 0.4 0  2.6 0.4 0  2.8 0.4 0  3 0.4 0  3.2 0.4 0  3.4 0.4 0  3.6 0.4 0  3.8 0.4 0  4 0.4 0  4.2 0.4 0  4.4 0.4 0  4.6 0.4 0  4.8 0.4 0  5 0.4 0  5.2 0.4 0  5.4 0.4 0  5.6 0.4 0  5.8 0.4 0  6 0.4 0  6.2 0.4 0  6.4 0.4 0  6.6 0.4 0  6.8 0.4 0  7 0.4 0  7.2 0.4 0  7.4 0.4 0  7.6 0.4 0  7.8 0.4 0  8 0.4 0  8.199999999999999 0.4 0  8.4 0.4 0  8.6 0.4 0  8.800000000000001 0.4 0  9 0.4 0  9.199999999999999 0.4 0  9.4 0.4 0  9.6 0.4 0  9.800000000000001 0.4 0  10 0.4 0  0 0.6 0  0.2 0.6 0  0.4 0.6 0  0.6 0.6 0  0.8 0.6 0  1 0.6 0  1.2 0.6 0  1.4 0.6 0  1.6 0.6 0  1.8 0.6 0  2 0.6 0  2.2 0.6 0  2.4 0.6 0  2.6 0.6 0  2.8 0.6 0  3 0.6 0  3.2 0.6 0  3.4 0.6 0  3.6 0.6 0  3.8 0.6 0  4 0.6 0  4.2 0.6 0  4.4 0.6 0  4.6 0.6 0  4.8 0.6 0  5 0.6 0  5.2 0.6 0  5.4 0.6 0  5.6 0.6 0  5.8 0.6 0  6 0.6 0  6.2 0.6 0  6.4 0.6 0  6.6 0.6 0  6.8 0.6 0  7 0.6 0  7.2 0.6 0  7.4 0.6 0  7.6 0.6 0  7.8 0.6 0  8 0.6 0  8.199999999999999 0.6 0  8.4 0.6 0  8.6 0.6 0  8.800000000000001 0.6 0  9 0.6 0  9.199999999999999 0.6 0  9.4 0.6 0  9.6 0.6 0  9.800000000000001 0.6 0  10 0.6 0  0 0.8 0  0.2 0.8 0  0.4 0.8 0  0.6 0.8 0  0.8 0.8 0  1 0.8 0  1.2 0.8 0  1.4 0.8 0  1.6 0.8 0  1.8 0.8 0  2 0.8 0  2.2 0.8 0  2.4 0.8 0  2.6 0.8 0  2.8 0.8 0  3 0.8 0  3.2 0.8 0  3.4 0.8 0  3.6 0.8 0  3.8 0.8 0  4 0.8 0  4.2 0.8 0  4.4 0.8 0  4.6 0.8 0  4.8 0.8 0  5 0.8 0  5.2 0.8 0  5.4 0.8 0  5.6 0.8 0  5.8 0.8 0  6 0.8 0  6.2 0.8 0  6.4 0.8 0  6.6 0.8 0  6.8 0.8 0  7 0.8 0  7.2 0.8 0  7.4 0.8 0  7.6 0.8 0  7.8 0.8 0  8 0.8 0  8.199999999999999 0.8 0  8.4 0.8 0  8.6 0.8 0  8.800000000000001 0.8 0  9 0.8 0  9.199999999999999 0.8 0  9.4 0.8 0  9.6 0.8 0  9.800000000000001 0.8 0  10 0.8 0  0 1 0  0.2 1 0  0.4 1 0  0.6 1 0  0.8 1 0  1 1 0  1.2 1 0  1.4 1 0  1.6 1 0  1.8 1 0  2 1 0  2.2 1 0  2.4 1 0  2.6 1 0  2.8 1 0  3 1 0  3.2 1 0  3.4 1 0  3.6 1 0  3.8 1 0  4 1 0  4.2 1 0  4.4 1 0  4.6 1 0  4.8 1 0  5 1 0  5.2 1 0  5.4 1 0  5.6 1 0  5.8 1 0  6 1 0  6.2 1 0  6.4 1 0  6.6 1 0  6.8 1 0  7 1 0  7.2 1 0  7.4 1 0  7.6 1 0  7.8 1 0  8 1 0  8.199999999999999 1 0  8.4 1 0  8.6 1 0  8.800000000000001 1 0  9 1 0  9.199999999999999 1 0  9.4 1 0  9.6 1 0  9.800000000000001 1 0  10 1 0  0 1.2 0  0.2 1.2 0  0.4 1.2 0  0.6 1.2 0  0.8 1.2 0  1 1.2 0  1.2 1.2 0  1.4 1.2 0  1.6 1.2 0  1.8 1.2 0  2 1.2 0  2.2 1.2 0  2.4 1.2 0  2.6 1.2 0  2.8 1.2 0  3 1.2 0  3.2 1.2 0  3.4 1.2 0  3.6 1.2 0  3.8 1.2 0  4 1.2 0  4.2 1.2 0  4.4 1.2 0  4.6 1.2 0  4.8 1.2 0  5 1.2 0  5.2 1.2 0  5.4 1.2 0  5.6 1.2 0  5.8 1.2 0  6 1.2 0  6.2 1.2 0  6.4 1.2 0  6.6 1.2 0  6.8 1.2 0  7 1.2 0  7.2 1.2 0  7.4 1.2 0  7.6 1.2 0  7.8 1.2 0  8 1.2 0  8.199999999999999 1.2 0  8.4 1.2 0  8.6 1.2 0  8.800000000000001 1.2 0  9 1.2 0  9.199999999999999 1.2 0  9.4 1.2 0  9.6 1.2 0  9.800000000000001 1.2 0  10 1.2 0  0 1.4 0  0.2 1.4 0  0.4 1.4 0  0.6 1.4 0  0.8 1.4 0  1 1.4 0  1.2 1.4 0  1.4 1.4 0  1.6 1.4 0  1.8 1.4 0  2 1.4 0  2.2 1.4 0  2.4 1.4 0  2.6 1.4 0  2.8 1.4 0  3 1.4 0  3.2 1.4 0  3.4 1.4 0  3.6 1.4 0  3.8 1.4 0  4 1.4 0  4.2 1.4 0  4.4 1.4 0  4.6 1.4 0  4.8 1.4 0  5 1.4 0  5.2 1.4 0  5.4 1.4 0  5.6 1.4 0  5.8 1.4 0  6 1.4 0  6.2 1.4 0  6.4 1.4 0  6.6 1.4 0  6.8 1.4 0  7 1.4 0  7.2 1.4 0  7.4 1.4 0  7.6 1.4 0  7.8 1.4 0  8 1.4 0  8.199999999999999 1.4 0  8.4 1.4 0  8.6 1.4 0  8.800000000000001 1.4 0  9 1.4 0  9.199999999999999 1.4 0  9.4 1.4 0  9.6 1.4 0  9.800000000000001 1.4 0  10 1.4 0  0 1.6 0  0.2 1.6 0  0.4 1.6 0  0.6 1.6 0  0.8 1.6 0  1 1.6 0  1.2 1.6 0  1.4 1.6 0  1.6 1.6 0  1.8 1.6 0  2 1.6 0  2.2 1.6 0  2.4 1.6 0  2.6 1.6 0  2.8 1.6 0  3 1.6 0  3.2 1.6 0  3.4 1.6 0  3.6 1.6 0  3.8 1.6 0  4 1.6 0  4.2 1.6 0  4.4 1.6 0  4.6 1.6 0  4.8 1.6 0  5 1.6 0  5.2 1.6 0  5.4 1.6 0  5.6 1.6 0  5.8 1.6 0  6 1.6 0  6.2 1.6 0  6.4 1.6 0  6.6 1.6 0  6.8 1.6 0  7 1.6 0  7.2 1.6 0  7.4 1.6 0  7.6 1.6 0  7.8 1.6 0  8 1.6 0  8.199999999999999 1.6 0  8.4 1.6 0  8.6 1.6 0  8.800000000000001 1.6 0  9 1.6 0  9.199999999999999 1.6 0  9.4 1.6 0  9.6 1.6 0  9.800000000000001 1.6 0  10 1.6 0  0 1.8 0  0.2 1.8 0  0.4 1.8 0  0.6 1.8 0  0.8 1.8 0  1 1.8 0  1.2 1.8 0  1.4 1.8 0  1.6 1.8 0  1.8 1.8 0  2 1.8 0  2.2 1.8 0  2.4 1.8 0  2.6 1.8 0  2.8 1.8 0  3 1.8 0  3.2 1.8 0  3.4 1.8 0  3.6 1.8 0  3.8 1.8 0  4 1.8 0  4.2 1.8 0  4.4 1.8 0  4.6 1.8 0  4.8 1.8 0  5 1.8 0  5.2 1.8 0  5.4 1.8 0  5.6 1.8 0  5.8 1.8 0  6 1.8 0  6.2 1.8 0  6.4 1.8 0  6.6 1.8 0  6.8 1.8 0  7 1.8 0  7.2 1.8 0  7.4 1.8 0  7.6 1.8 0  7.8 1.8 0  8 1.8 0  8.199999999999999 1.8 0  8.4 1.8 0  8.6 1.8 0  8.800000000000001 1.8 0  9 1.8 0  9.199999999999999 1.8 0  9.4 1.8 0  9.6 1.8 0  9.800000000000001 1.8 0  10 1.8 0  0 2 0  0.2 2 0  0.4 2 0  0.6 2 0  0.8 2 0  1 2 0  1.2 2 0  1.4 2 0  1.6 2 0  1.8 2 0  2 2 0  2.2 2 0  2.4 2 0  2.6 2 0  2.8 2 0  3 2 0  3.2 2 0  3.4 2 0  3.6 2 0  3.8 2 0  4 2 0  4.2 2 0  4.4 2 0  4.6 2 0  4.8 2 0  5 2 0  5.2 2 0  5.4 2 0  5.6 2 0  5.8 2 0  6 2 0  6.2 2 0  6.4 2 0  6.6 2 0  6.8 2 0  7 2 0  7.2 2 0  7.4 2 0  7.6 2 0  7.8 2 0  8 2 0  8.199999999999999 2 0  8.4 2 0  8.6 2 0  8.800000000000001 2 0  9 2 0  9.199999999999999 2 0  9.4 2 0  9.6 2 0  9.800000000000001 2 0  10 2 0  0 2.2 0  0.2 2.2 0  0.4 2.2 0  0.6 2.2 0  0.8 2.2 0  1 2.2 0  1.2 2.2 0  1.4 2.2 0  1.6 2.2 0  1.8 2.2 0  2 2.2 0  2.2 2.2 0  2.4 2.2 0  2.6 2.2 0  2.8 2.2 0  3 2.2 0  3.2 2.2 0  3.4 2.2 0  3.6 2.2 0  3.8 2.2 0  4 2.2 0  4.2 2.2 0  4.4 2.2 0  4.6 2.2 0  4.8 2.2 0  5 2.2 0  5.2 2.2 0  5.4 2.2 0  5.6 2.2 0  5.8 2.2 0  6 2.2 0  6.2 2.2 0  6.4 2.2 0  6.6 2.2 0  6.8 2.2 0  7 2.2 0  7.2 2.2 0  7.4 2.2 0  7.6 2.2 0  7.8 2.2 0  8 2.2 0  8.199999999999999 2.2 0  8.4 2.2 0  8.6 2.2 0  8.800000000000001 2.2 0  9 2.2 0  9.199999999999999 2.2 0  9.4 2.2 0  9.6 2.2 0  9.800000000000001 2.2 0  10 2.2 0  0 2.4 0  0.2 2.4 0  0.4 2.4 0  0.6 2.4 0  0.8 2.4 0  1 2.4 0  1.2 2.4 0  1.4 2.4 0  1.6 2.4 0  1.8 2.4 0  2 2.4 0  2.2 2.4 0  2.4 2.4 0  2.6 2.4 0  2.8 2.4 0  3 2.4 0  3.2 2.4 0  3.4 2.4 0  3.6 2.4 0  3.8 2.4 0  4 2.4 0  4.2 2.4 0  4.4 2.4 0  4.6 2.4 0  4.8 2.4 0  5 2.4 0  5.2 2.4 0  5.4 2.4 0  5.6 2.4 0  5.8 2.4 0  6 2.4 0  6.2 2.4 0  6.4 2.4 0  6.6 2.4 0  6.8 2.4 0  7 2.4 0  7.2 2.4 0  7.4 2.4 0  7.6 2.4 0  7.8 2.4 0  8 2.4 0  8.199999999999999 2.4 0  8.4 2.4 0  8.6 2.4 0  8.800000000000001 2.4 0  9 2.4 0  9.199999999999999 2.4 0  9.4 2.4 0  9.6 2.4 0  9.800000000000001 2.4 0  10 2.4 0  0 2.6 0  0.2 2.6 0  0.4 2.6 0  0.6 2.6 0  0.8 2.6 0  1 2.6 0  1.2 2.6 0  1.4 2.6 0  1.6 2.6 0  1.8 2.6 0  2 2.6 0  2.2 2.6 0  2.4 2.6 0  2.6 2.6 0  2.8 2.6 0  3 2.6 0  3.2 2.6 0  3.4 2.6 0  3.6 2.6 0  3.8 2.6 0  4 2.6 0  4.2 2.6 0  4.4 2.6 0  4.6 2.6 0  4.8 2.6 0  5 2.6 0  5.2 2.6 0  5.4 2.6 0  5.6 2.6 0  5.8 2.6 0  6 2.6 0  6.2 2.6 0  6.4 2.6 0  6.6 2.6 0  6.8 2.6 0  7 2.6 0  7.2 2.6 0  7.4 2.6 0  7.6 2.6 0  7.8 2.6 0  8 2.6 0  8.199999999999999 2.6 0  8.4 2.6 0  8.6 2.6 0  8.800000000000001 2.6 0  9 2.6 0  9.199999999999999 2.6 0  9.4 2.6 0  9.6 2.6 0  9.800000000000001 2.6 0  10 2.6 0  0 2.8 0  0.2 2.8 0  0.4 2.8 0  0.6 2.8 0  0.8 2.8 0  1 2.8 0  1.2 2.8 0  1.4 2.8 0  1.6 2.8 0  1.8 2.8 0  2 2.8 0  2.2 2.8 0  2.4 2.8 0  2.6 2.8 0  2.8 2.8 0  3 2.8 0  3.2 2.8 0  3.4 2.8 0  3.6 2.8 0  3.8 2.8 0  4 2.8 0  4.2 2.8 0  4.4 2.8 0  4.6 2.8 0  4.8 2.8 0  5 2.8 0  5.2 2.8 0  5.4 2.8 0  5.6 2.8 0  5.8 2.8 0  6 2.8 0  6.2 2.8 0  6.4 2.8 0  6.6 2.8 0  6.8 2.8 0  7 2.8 0  7.2 2.8 0  7.4 2.8 0  7.6 2.8 0  7.8 2.8 0  8 2.8 0  8.199999999999999 2.8 0  8.4 2.8 0  8.6 2.8 0  8.800000000000001 2.8 0  9 2.8 0  9.199999999999999 2.8 0  9.4 2.8 0  9.6 2.8 0  9.800000000000001 2.8 0  10 2.8 0  0 3 0  0.2 3 0  0.4 3 0  0.6 3 0  0.8 3 0  1 3 0  1.2 3 0  1.4 3 0  1.6 3 0  1.8 3 0  2 3 0  2.2 3 0  2.4 3 0  2.6 3 0  2.8 3 0  3 3 0  3.2 3 0  3.4 3 0  3.6 3 0  3.8 3 0  4 3 0  4.2 3 0  4.4 3 0  4.6 3 0  4.8 3 0  5 3 0  5.2 3 0  5.4 3 0  5.6 3 0  5.8 3 0  6 3 0  6.2 3 0  6.4 3 0  6.6 3 0  6.8 3 0  7 3 0  7.2 3 0  7.4 3 0  7.6 3 0  7.8 3 0  8 3 0  8.199999999999999 3 0  8.4 3 0  8.6 3 0  8.800000000000001 3 0  9 3 0  9.199999999999999 3 0  9.4 3 0  9.6 3 0  9.800000000000001 3 0  10 3 0  0 3.2 0  0.2 3.2 0  0.4 3.2 0  0.6 3.2 0  0.8 3.2 0  1 3.2 0  1.2 3.2 0  1.4 3.2 0  1.6 3.2 0  1.8 3.2 0  2 3.2 0  2.2 3.2 0  2.4 3.2 0  2.6 3.2 0  2.8 3.2 0  3 3.2 0  3.2 3.2 0  3.4 3.2 0  3.6 3.2 0  3.8 3.2 0  4 3.2 0  4.2 3.2 0  4.4 3.2 0  4.6 3.2 0  4.8 3.2 0  5 3.2 0  5.2 3.2 0  5.4 3.2 0  5.6 3.2 0  5.8 3.2 0  6 3.2 0  6.2 3.2 0  6.4 3.2 0  6.6 3.2 0  6.8 3.2 0  7 3.2 0  7.2 3.2 0  7.4 3.2 0  7.6 3.2 0  7.8 3.2 0  8 3.2 0  8.199999999999999 3.2 0  8.4 3.2 0  8.6 3.2 0  8.800000000000001 3.2 0  9 3.2 0  9.199999999999999 3.2 0  9.4 3.2 0  9.6 3.2 0  9.800000000000001 3.2 0  10 3.2 0  0 3.4 0  0.2 3.4 0  0.4 3.4 0  0.6 3.4 0  0.8 3.4 0  1 
[...]
<PointData  Scalars="f_8"> 
<DataArray  type="Float64"  Name="f_8"  format="ascii">-4.1411027515702505e-02  -2.0034628168572020e-02  -1.0404070056063976e-02  -7.1755567496907700e-03  -4.3933463460321329e-03  -2.3447962062111073e-03  -5.9276886568951825e-04  9.8553927226296576e-04  2.4918724555868252e-03  4.0028481680989400e-03  5.5825368074448808e-03  7.2400476766330572e-03  8.9102718619007894e-03  1.0767115137946044e-02  1.6383027049955843e-02  3.9835634785486587e-02  4.0663154803433466e-02  4.4509660885036738e-02  1.7282260544715931e-03  4.1083255012514287e-03  3.1114170895227195e-03  2.6192892314005831e-03  2.4392704135201004e-03  2.5209768060297680e-03  2.7771464333992374e-03  3.1049512553094618e-03  3.3960713214939865e-03  3.5496581255138144e-03  3.4823659070936561e-03  3.1309480420075083e-03  2.4663959348913988e-03  1.3096642814224198e-03  3.5015216895247859e-03  -3.9528613102774758e-02  -3.5984730278678809e-02  -3.7418487017074085e-02  -1.3687860890413369e-02  -8.1392658215822186e-03  -6.5631351383172417e-03  -5.1617665774830830e-03  -3.7509451940266670e-03  -2.4002839217918404e-03  -1.1035964987975108e-03  2.0349298039983740e-04  1.5981815405613699e-03  3.1824148624340931e-03  5.0789920358258892e-03  7.7240309177894215e-03  1.0831134720033568e-02  2.0358712387892185e-02  4.1528005221055188e-02  -3.3343648374012025e-01  -2.1010567013009704e-01  -1.4069297499534969e-01  -9.8029610448270965e-02  -6.8972705515454896e-02  -4.7722541818200855e-02  -3.1322856095559432e-02  -1.8028463927128615e-02  -6.7068198175535441e-03  3.4433397429602195e-03  1.3023537502892219e-02  2.2485804174803621e-02  3.2204459407761579e-02  4.2391665948242278e-02  5.0881496187179714e-02  5.4296940457725602e-02  4.1325459192745904e-02  2.3090852457853608e-02  1.3190404927468735e-02  1.1470714125196763e-02  9.9173937988221838e-03  8.3621551614858868e-03  6.6858544668087433e-03  4.8189779542061042e-03  2.7689461961265963e-03  5.9625530192815095e-04  -1.6067316677311773e-03  -3.7445678178820254e-03  -5.7496415257929116e-03  -7.6075856005358928e-03  -9.3827698880673185e-03  -1.1205280546376640e-02  -1.3271145449383884e-02  -2.3412081254259282e-02  -4.2468373326856046e-02  -5.7762044372709688e-02  -5.4721094865464816e-02  -4.6153020112912023e-02  -3.5665224388062036e-02  -2.5628067803715456e-02  -1.5884886563991590e-02  -6.0787197204125436e-03  4.2370940773136002e-03  1.5668534439002735e-02  2.9026122926155647e-02  4.5453074388991280e-02  6.6704758674754838e-02  9.5746077228010068e-02  1.3838371552278483e-01  2.0775698572434986e-01  3.3109779885240831e-01  -5.0036465883274461e-01  -3.4792355115196394e-01  -2.4771714269838441e-01  -1.7780942481188208e-01  -1.2765663990183421e-01  -8.9903858102973647e-02  -6.0282358974976399e-02  -3.5970520919510772e-02  -1.5012770851465943e-02  4.0481295816653228e-03  2.2353014974294903e-02  4.0782819876494826e-02  5.9854929888144781e-02  7.9390827118650281e-02  9.7561326874583201e-02  1.0471462884230370e-01  7.6870371511705379e-02  3.8377102344968765e-02  2.5019199666590039e-02  1.9331008368109658e-02  1.5910862367645724e-02  1.2634794155959731e-02  9.3204679916811077e-03  5.7690282800264220e-03  1.9543769445975654e-03  -2.0422986679262422e-03  -6.0772870330901719e-03  -1.0000595133076433e-02  -1.3716478265063458e-02  -1.7236670434364373e-02  -2.0750464881688448e-02  -2.4468015740537006e-02  -3.0325565975820982e-02  -4.3117254745398750e-02  -8.3966679492273655e-02  -1.1491367499708063e-01  -1.0831554450025926e-01  -8.9511520025779417e-02  -6.9078351191270967e-02  -4.9103524008771889e-02  -2.9868178896892122e-02  -1.0896046724429466e-02  8.6879249559894036e-03  3.0037494315948626e-02  5.4631528072133458e-02  8.4449585483541104e-02  1.2233570091098185e-01  1.7257730092950058e-01  2.4254225726032416e-01  3.4278397815488715e-01  4.9529547283208764e-01  -6.1810807885417929e-01  -4.5796889136027791e-01  -3.3896057321862211e-01  -2.5082074552713596e-01  -1.8425861191981593e-01  -1.3272052234190376e-01  -9.1502565929600738e-02  -5.7258831010631735e-02  -2.7503782213638986e-02  -3.0352475924862285e-04  2.5897258162669991e-02  5.2308985787455430e-02  7.9636544987863003e-02  1.0755068012164178e-01  1.3368351255361893e-01  1.4616538547007607e-01  1.1290081236085737e-01  6.0638024392738368e-02  3.6261947769522844e-02  2.6251989187524229e-02  2.0881673456712574e-02  1.5698150265207152e-02  1.0658273359886667e-02  5.4599115294860535e-03  1.5066655357808007e-05  -5.6182344436759776e-03  -1.1295046431009752e-02  -1.6860299626162027e-02  -2.2232606407314667e-02  -2.7476885683765957e-02  -3.2877825059933190e-02  -3.8499494504560076e-02  -4.8754864267052597e-02  -7.3253459863657833e-02  -1.2729042499837040e-01  -1.6384623015116687e-01  -1.5165063145025104e-01  -1.2417675939008303e-01  -9.4644688663889212e-02  -6.5772564622907814e-02  -3.8021233721052351e-02  -1.0727089220530953e-02  1.7325424950590366e-02  4.7720413893767209e-02  8.2430586745332074e-02  1.2398186906908802e-01  1.7575698089860289e-01  2.4248941614576039e-01  3.3075287328895858e-01  4.4984665806394114e-01  6.1010958900369439e-01  -7.1013366838634195e-01  -5.4493431568089024e-01  -4.1607409079190916e-01  -3.1568994619953511e-01  -2.3713511013110067e-01  -1.7463254310096527e-01  -1.2368215035178590e-01  -8.0785663810488489e-02  -4.3190900318806021e-02  -8.6657010189315660e-03  2.4636380941119612e-02  5.8175559033975165e-02  9.2801131807070239e-02  1.2819128380941960e-01  1.6161632071839052e-01  1.7947719718593105e-01  1.4747468028655700e-01  8.2705701145381894e-02  4.7270817206392521e-02  3.2635971177578570e-02  2.4568071660012746e-02  1.7152663339465919e-02  1.0305584527770200e-02  3.5414441124984311e-03  -3.3463042928411767e-03  -1.0372298070613970e-02  -1.7443349212927523e-02  -2.4452331875153551e-02  -3.1382840505117318e-02  -3.8413028303712064e-02  -4.6015888530766803e-02  -5.4310103676942285e-02  -6.8635914756101646e-02  -1.0415236873801888e-01  -1.7043079576140061e-01  -2.0529058840720199e-01  -1.8709005887413790e-01  -1.5144094228709393e-01  -1.1360853985679753e-01  -7.6762928273978820e-02  -4.1357032918026122e-02  -6.5667904692811099e-03  2.9095403770496842e-02  6.7528245640588000e-02  1.1102510988112529e-01  1.6239881901085748e-01  2.2520160133517822e-01  3.0397618776309893e-01  4.0452648847282585e-01  5.3350789493435302e-01  6.9888796545394571e-01  -7.8718081722977207e-01  -6.1929699821884532e-01  -4.8391091238808492e-01  -3.7520086050380935e-01  -2.8771953400162364e-01  -2.1653265618735287e-01  -1.5747427703789380e-01  -1.0711202244542088e-01  -6.2615936227315303e-02  -2.1610913081621209e-02  1.7916559494481898e-02  5.7589617062402176e-02  9.8377542710258101e-02  1.4004572243659055e-01  1.7991435181561594e-01  2.0413845694370536e-01  1.7893176466760949e-01  1.1099777913684682e-01  6.0241019710647131e-02  3.8520795519535224e-02  2.6499290350728136e-02  1.6625994227585535e-02  7.9481497602371508e-03  -2.4894099241535336e-04  -8.3377237904350525e-03  -1.6450958327873608e-02  -2.4599764996931995e-02  -3.2780224271136124e-02  -4.1094592189726525e-02  -4.9893870024451656e-02  -5.9916850172724134e-02  -7.2085727823994666e-02  -9.4636185369690012e-02  -1.4416191848294663e-01  -2.1165831990290779e-01  -2.3847807121959147e-01  -2.1291509201984030e-01  -1.6983913287669028e-01  -1.2489125722348690e-01  -8.1233013594613282e-02  -3.9214404782076322e-02  2.1339059381197184e-03  4.4491385059563737e-02  8.9952329231526226e-02  1.4097955503980938e-01  2.0048736095069183e-01  2.7198222765210117e-01  3.5968799075451885e-01  4.6857455258097802e-01  6.0409787821363259e-01  7.7222053786991296e-01  -8.5637193888239838e-01  -6.8667332597090991e-01  -5.4689756353922736e-01  -4.3216102137313189e-01  -3.3786223180680225e-01  -2.5967111074453836e-01  -1.9377745305574501e-01  -1.3691695132564879e-01  -8.6311142724004031e-02  -3.9572199733949209e-02  5.3588455493970696e-03  5.0166888603317403e-02  9.5891450064231859e-02  1.4240299536189158e-01  1.8741272791421967e-01  2.1896556326777217e-01  2.0559518710430788e-01  1.4592599033856002e-01  8.3979727350736583e-02  4.2686701796336907e-02  2.6340509052196374e-02  1.4050585260062472e-02  3.5091551311188665e-03  -6.0398744353529453e-03  -1.5143856976562653e-02  -2.4082705702680049e-02  -3.3013265641230347e-02  -4.2085494245278257e-02  -5.1571939918069687e-02  -6.2016910076585254e-02  -7.4279327701827103e-02  -9.1234918019403685e-02  -1.3315752835280067e-01  -1.9130117050582363e-01  -2.4878182101670301e-01  -2.6188276732284355e-01  -2.2762643593955173e-01  -1.7842783656847228e-01  -1.2788440019841044e-01  -7.8733761160454691e-02  -3.1199875580594425e-02  1.5784021245813559e-02  6.3990056622889369e-02  1.1558894337744723e-01  1.7308540229288019e-01  2.3936872108458368e-01  3.1780025549569546e-01  4.1226614714316800e-01  5.2714319049836589e-01  6.6704400193540558e-01  8.3703995117330077e-01  -9.2300346790861554e-01  -7.5206495303717369e-01  -6.0904983876193020e-01  -4.8969152045898079e-01  -3.8991075838345657e-01  -3.0582985295414788e-01  -2.3396458556491617e-01  -1.7126734077037273e-01  -1.1509851910061178e-01  -6.3163185488867138e-02  -1.3469532741656430e-02  3.5623562240933423e-02  8.5160774887308485e-02  1.3510483610460719e-01  1.8367964680787477e-01  2.2235485447707140e-01  2.2490101275948382e-01  1.7948908342499839e-01  1.1715113143195714e-01  6.2100227391350918e-02  2.5302506604623746e-02  1.0042750574171960e-02  -2.5962922733704864e-03  -1.3714393531311006e-02  -2.3960447663608261e-02  -3.3762969912756388e-02  -4.3440489285671756e-02  -5.3327130212775714e-02  -6.3904303611004840e-02  -7.5960198270367998e-02  -9.2607475608790818e-02  -1.3206491292558475e-01  -1.8168884734776417e-01  -2.3756982481893335e-01  -2.7887492937841324e-01  -2.7367012520153872e-01  -2.3061119389252699e-01  -1.7690992025339142e-01  -1.2230998515980591e-01  -6.8930725191896219e-02  -1.6872430635083247e-02  3.4967081164712560e-02  8.8348553292892124e-02  1.4540839920451171e-01  2.0858988108115536e-01  2.8067225082448194e-01  3.6482570892603594e-01  4.6463163900748466e-01  5.8402924579642390e-01  7.2711565157210856e-01  8.9840717191634112e-01  -9.9164885397064273e-01  -8.1980464721873803e-01  -6.7420569103999184e-01  -5.5101322976523970e-01  -4.4650366043305628e-01  -3.5714999351359084e-01  -2.7976668078925165e-01  -2.1154751023032706e-01  -1.5004990944405389e-01  -9.3153079003627626e-02  -3.9030439023260068e-02  1.3810105578559476e-02  6.6329891337026187e-02  1.1853605940098719e-01  1.6901613954178904e-01  2.1254248004931539e-01  2.3097724130569944e-01  2.0516274064048273e-01  1.4962392319083853e-01  9.2669491078716665e-02  4.3388850720262460e-02  8.9648995047043184e-03  -8.6058853426904565e-03  -2.2517021388019483e-02  -3.4934394472117131e-02  -4.6538969705172989e-02  -5.7881072261270324e-02  -6.9664950861305960e-02  -8.3384362960099240e-02  -1.0382117742389793e-01  -1.3832301834848515e-01  -1.8016810020493976e-01  -2.2854223284748912e-01  -2.7579921804615903e-01  -2.9534144466342166e-01  -2.7157721792279155e-01  -2.2201125501304592e-01  -1.6558702713481996e-01  -1.0825179863759229e-01  -5.1642510550203607e-02  4.2271728610557783e-03  6.0411954240170158e-02  1.1855995886064709e-01  1.8067918868573477e-01  2.4907345002139283e-01  3.2635607714019549e-01  4.1548366569043932e-01  5.1976379570647868e-01  6.4280495189782250e-01  7.8836291180539220e-01  9.6060905050631484e-01  -1.0667049827439352e+00  -8.9415022182488202e-01  -7.4626070285511270e-01  -6.1955935887931746e-01  -5.1059027377968214e-01  -4.1612820586007054e-01  -3.3327393013964185e-01  -2.5947544112672244e-01  -1.9251933301283419e-01  -1.3051164016186512e-01  -7.1866029278506022e-02  -1.5333250746279305e-02  3.9860890319088738e-02  9.3687955474661508e-02  1.4490741769317486e-01  1.9026197590025101e-01  2.1966552388037602e-01  2.1535893087223557e-01  1.7585532518409558e-01  1.2205660667038427e-01  7.1368803112689755e-02  2.7011496929772900e-02  -7.2777543614490200e-03  -2.9841969908235410e-02  -4.7849594030873917e-02  -6.4296919753235496e-02  -8.0719146218082793e-02  -9.9136454193146886e-02  -1.2261407257505837e-01  -1.5250236430783348e-01  -1.8752307795027431e-01  -2.2723978260839436e-01  -2.6907737952325317e-01  -2.9744649264320927e-01  -2.9289194649599204e-01  -2.5587650264358602e-01  -2.0319756896717961e-01  -1.4539366768621545e-01  -8.6128552836588421e-02  -2.6784555645035419e-02  3.2634950660581398e-02  9.3041067371574318e-02  1.5588493360421443e-01  2.2297996987720306e-01  2.9644362452249456e-01  3.7869360997648716e-01  4.7246185238041050e-01  5.8079869331440837e-01  7.0703960259247034e-01  8.5469237101173223e-01  1.0276962657165121e+00  -1.1527810982305109e+00  -9.7961573724056106e-01  -8.2942056835623712e-01  -6.9912905932923897e-01  -5.8551693195220367e-01  -4.8566664020312716e-01  -3.9697396822500230e-01  -3.1714442287522016e-01  -2.4419577103659687e-01  -1.7647831206099401e-01  -1.1268978606446790e-01  -5.1892443605507745e-02  6.4112263103240519e-03  6.2069678459911265e-02  1.1394853426776642e-01  1.5963595445655684e-01  1.9404402376691643e-01  2.0626902934254918e-01  1.8753657981571484e-01  1.4509329731280574e-01  9.5075205420483463e-02  4.7309017726316335e-02  4.2436596874247459e-03  -3.2172416055791124e-02  -6.1836036399609905e-02  -8.8144420001997834e-02  -1.1390394733680421e-01  -1.4099653818190550e-01  -1.7021239448134207e-01  -2.0159460320903400e-01  -2.3514689844273881e-01  -2.6875894076970386e-01  -2.9428058845964389e-01  -2.9845786090870408e-01  -2.7492219925157602e-01  -2.3100538680061358e-01  -1.7686768205594830e-01  -1.1783256835005561e-01  -5.6553077577513183e-02  5.7709646752156117e-03  6.9073374796413151e-02  1.3405041509052876e-01  2.0190780105459227e-01  2.7423870446925502e-01  3.5296730560472506e-01  4.4031510582218492e-01  5.3878530646415179e-01  6.5116741556836533e-01  7.8053268755428173e-01  9.3018931654862080e-01  1.1038489786277921e+00  -1.2551035491640916e+00  -1.0810184625128294e+00  -9.2834200609118434e-01  -7.9396741900344492e-01  -6.7507204386865272e-01  -5.6909999489798835e-01  -4.7377894272697618e-01  -3.8706234103099824e-01  -3.0715986182084509e-01  -2.3264050081777748e-01  -1.6250052019795391e-01  -9.6159821617328153e-02  -3.3462362447411090e-02  2.5235777776295709e-02  7.8867845179626486e-02  1.2546430547763274e-01  1.6199625071660601e-01  1.8313895087179738e-01  1.8149929882250018e-01  1.5508050291244230e-01  1.1158268222392544e-01  6.1716850045134726e-02  1.2142020794571063e-02  -3.4609558962104221e-02  -7.7255662954064497e-02  -1.1587639450544579e-01  -1.5169073514431058e-01  -1.8565595583069247e-01  -2.1823057870937801e-01  -2.4936628557706925e-01  -2.7736151818558175e-01  -2.9730329252168342e-01  -3.0181650949964878e-01  -2.8566965492415369e-01  -2.5047928381337897e-01  -2.0223425974157708e-01  -1.4582576581001086e-01  -8.4385016165821891e-02  -1.9961468324549262e-02  4.6425554545827107e-02  1.1459996252484793e-01  1.8501162469741950e-01  2.5861066239524177e-01  3.3678873982858754e-01  4.2131949448581013e-01  5.1426590330633659e-01  6.1790538404326811e-01  7.3473437433629019e-01  8.6751482814597136e-01  1.0193192457467291e+00  1.1937031855790259e+00  -1.3799797080309615e+00  -1.2042316507099020e+00  -1.0489719717968400e+00  -9.0960287979876930e-01  -7.8425887691246221e-01  -6.7081809338244824e-01  -5.6743912871260316e-01  -4.7236519759273859e-01  -3.8397230530275156e-01  -3.0098512789364645e-01  -2.2265849705977547e-01  -1.4878191833985027e-01  -7.9589671224627206e-02  -1.5723217074338373e-02  4.1708045086957260e-02  9.1020811496498544e-02  1.2994573713499985e-01  1.5555064782973768e-01  1.6368431182742491e-01  1.5051216054760855e-01  1.1680253519449948e-01  6.8755958025074781e-02  1.4002337490255642e-02  -4.1969218953314132e-02  -9.5984667476527757e-02  -1.4610589999871010e-01  -1.9134622747192609e-01  -2.3129465602004859e-01  -2.6547692153484859e-01  -2.9255961880035886e-01  -3.0965269891406777e-01  -3.1284070458743951e-01  -2.9930134214975457e-01  -2.6934968224403527e-01  -2.2599350613251154e-01  -1.7257357469620993e-01  -1.1178168500282347e-01  -4.5808046337677599e-02  2.3777976036221036e-02  9.6068807144201490e-02  1.7073423249201686e-01  2.4795908269985292e-01  3.2844854322794131e-01  4.1345315511063491e-01  5.0469171727894713e-01  6.0413885197690853e-01  7.1384329855215722e-01  8.3593533711134604e-01  9.7279328157753731e-01  1.1268530524421652e+00  1.3028104168656873e+00  -1.5334132720754501e+00  -1.3644941398280128e+00  -1.2049905537893426e+00  -1.0583759135362540e+00  -9.2372562622958576e-01  -7.9964299067449673e-01  -6.8494621853848692e-01  -5.7830847627793414e-01  -4.7837033590280248e-01  -3.8408307887583593e-01  -2.9488349734644564e-01  -2.1075922129726196e-01  -1.3225135481631761e-01  -6.0333990180099994e-02  3.6919118274926278e-03  5.8213420088134286e-02  1.0129115413221464e-01  1.3071195692948120e-01  1.4394875184622474e-01  1.3821327823485352e-01  1.1201189806622176e-01  6.7379995719714036e-02  9.8082271699133101e-03  -5.4088982784408407e-02  -1.1858387741508038e-01  -1.7929265717076232e-01  -2.3295987887020381e-01  -2.7722091395084580e-01  -3.1016220824204987e-01  -3.2985985470952017e-01  -3.3444362347545581e-01  -3.2289520779349035e-01  -2.9582852876792631e-01  -2.5525971672598036e-01  -2.0356722469786853e-01  -1.4288571897773517e-01  -7.5119940037018870e-02  -1.9014183681599981e-03  7.5488902289083004e-02  1.5613167581396484e-01  2.3949627754474934e-01  3.2553178535527943e-01  4.1479420752045909e-01  5.0849492729360424e-01  6.0834916068744382e-01  7.1621596861803116e-01  8.3379821621554639e-01  9.6269353048744377e-01  1.1047867601936299e+00  1.2614424455623110e+00  1.4377830751222465e+00  -1.7023731536263238e+00  -1.5770877443220450e+00  -1.4084915712668562e+00  -1.2493242136793510e+00  -1.0998377466973739e+00  -9.6046885122308634e-01  -8.3097967341135648e-01  -7.0979942476247848e-01  -5.9484789869666910e-01  -4.8524130483523059e-01  -3.8123568636540234e-01  -2.8327396552189910e-01  -1.9198296815757709e-01  -1.0853409929230755e-01  -3.4518002493159464e-02  2.8294456422296416e-02  7.8018844967024562e-02  1.1263735649200701e-01  1.3002975879009271e-01  1.2808560165173236e-01  1.0523987478792698e-01  6.1841970007613961e-02  1.3601360155363594e-03  -6.9957657913018695e-02  -1.4467438455549639e-01  -2.1567193808584373e-01  -2.7696535107887399e-01  -3.2407528846441697e-01  -3.5411036030498361e-01  -3.6567643213414508e-01  -3.5881335757444544e-01  -3.3488200632455023e-01  -2.9610597712561476e-01  -2.4485795394057649e-01  -1.8319984554148078e-01  -1.1284772664153100e-01  -3.5266672460884704e-02  4.8242756455321230e-02  1.3648498198787115e-01  2.2842844443681545e-01  3.2342497111811602e-01  4.2141765406680276e-01  5.2289110847694509e-01  6.2884504218941384e-01  7.4097867685757612e-01  8.6125378490568605e-01  9.9104663450134267e-01  1.1311095425412521e+00  1.2821750702369907e+00  1.4450934839592311e+00  1.6004066668808090e+00  -1.7908018298126440e+00  -1.7420124707631626e+00  -1.5729372009648701e+00  -1.4078465007096372e+00  -1.2503976897415281e+00  -1.1039157094107437e+00  -9.6980223875326643e-01  -8.4532879950932371e-01  -7.2424431886033780e-01  -6.0280906489716024e-01  -4.8255326221552308e-01  -3.6715829735943895e-01  -2.5914732487162778e-01  -1.6024929526366022e-01  -7.2410995754094501e-02  2.2728056015143007e-03  6.1766716300596450e-02  1.0402576177001152e-01  1.2689320900139447e-01  1.2821302863360423e-01  1.0631014573631219e-01  6.0990984829696539e-02  -5.1588953588798262e-03  -8.6092697268984775e-02  -1.7296385956682150e-01  -2.5584542849939751e-01  -3.2567950289363501e-01  -3.7582786835886223e-01  -4.0286025960253047e-01  -4.0644595335785366e-01  -3.8856302391601277e-01  -3.5238384334007516e-01  -3.0120855031243160e-01  -2.3778128710525645e-01  -1.6409794974400854e-01  -8.1552722232087080e-02  8.7598647931682039e-03  1.0573154808785933e-01  2.0811133553482750e-01  3.1473850473566134e-01  4.2485757619591291e-01  5.3779529421530436e-01  6.5265710249586117e-01  7.6982295024641001e-01  8.9255403046248483e-01  1.0249858194051635e+00  1.1689854847