<?xml version="1.0"?>
<VTKFile type="UnstructuredGrid"  version="0.1"  >
<UnstructuredGrid>
<Piece  NumberOfPoints="5101" NumberOfCells="10000">
<Points>
<DataArray  type="Float64"  NumberOfComponents="3"  format="ascii">0 0 0  0.2 0 0  0.4 0 0  0.6 0 0  0.8 0 0  1 0 0  1.2 0 0  1.4 0 0  1.6 0 0  1.8 0 0  2 0 0  2.2 0 0  2.4 0 0  2.6 0 0  2.8 0 0  3 0 0  3.2 0 0  3.4 0 0  3.6 0 0  3.8 0 0  4 0 0  4.2 0 0  4.4 0 0  4.6 0 0  4.8 0 0  5 0 0  5.2 0 0  5.4 0 0  5.6 0 0  5.8 0 0  6 0 0  6.2 0 0  6.4 0 0  6.6 0 0  6.8 0 0  7 0 0  7.2 0 0  7.4 0 0  7.6 0 0  7.8 0 0  8 0 0  8.199999999999999 0 0  8.4 0 0  8.6 0 0  8.800000000000001 0 0  9 0 0  9.199999999999999 0 0  9.4 0 0  9.6 0 0  9.800000000000001 0 0  10 0 0  0 0.2 0  0.2 0.2 0  0.4 0.2 0  0.6 0.2 0  0.8 0.2 0  1 0.2 0  1.2 0.2 0  1.4 0.2 0  1.6 0.2 0  1.8 0.2 0  2 0.2 0  2.2 0.2 0  2.4 0.2 0  2.6 0.2 0  2.8 0.2 0  3 0.2 0  3.2 0.2 0  3.4 0.2 0  3.6 0.2 0  3.8 0.2 0  4 0.2 0  4.2 0.2 0  4.4 0.2 0  4.6 0.2 0  4.8 0.2 0  5 0.2 0  5.2 0.2 0  5.4 0.2 0  5.6 0.2 0  5.8 0.2 0  6 0.2 0  6.2 0.2 0  6.4 0.2 0  6.6 0.2 0  6.8 0.2 0  7 0.2 0  7.2 0.2 0  7.4 0.2 0  7.6 0.2 0  7.8 0.2 0  8 0.2 0  8.199999999999999 0.2 0  8.4 0.2 0  8.6 0.2 0  8.800000000000001 0.2 0  9 0.2 0  9.199999999999999 0.2 0  9.4 0.2 0  9.6 0.2 0  9.800000000000001 0.2 0  10 0.2 0  0 0.4 0  0.2 0.4 0  0.4 0.4 0  0.6 0.4 0  0.8 0.4 0  1 0.4 0  1.2 0.4 0  1.4 0.4 0  1.6 0.4 0  1.8 0.4 0  2 0.4 0  2.2 0.4 0  2.4 0.4 0  2.6 0.4 0  2.8 0.4 0  3 0.4 0  3.2 0.4 0  3.4 0.4 0  3.6 0.4 0  3.8 0.4 0  4 0.4 0  4.2 0.4 0  4.4 0.4 0  4.6 0.4 0  4.8 0.4 0  5 0.4 0  5.2 0.4 0  5.4 0.4 0  5.6 0.4 0  5.8 0.4 0  6 0.4 0  6.2 0.4 0  6.4 0.4 0  6.6 0.4 0  6.8 0.4 0  7 0.4 0  7.2 0.4 0  7.4 0.4 0  7.6 0.4 0  7.8 0.4 0  8 0.4 0  8.199999999999999 0.4 0  8.4 0.4 0  8.6 0.4 0  8.800000000000001 0.4 0  9 0.4 0  9.199999999999999 0.4 0  9.4 0.4 0  9.6 0.4 0  9.800000000000001 0.4 0  10 0.4 0  0 0.6 0  0.2 0.6 0  0.4 0.6 0  0.6 0.6 0  0.8 0.6 0  1 0.6 0  1.2 0.6 0  1.4 0.6 0  1.6 0.6 0  1.8 0.6 0  2 0.6 0  2.2 0.6 0  2.4 0.6 0  2.6 0.6 0  2.8 0.6 0  3 0.6 0  3.2 0.6 0  3.4 0.6 0  3.6 0.6 0  3.8 0.6 0  4 0.6 0  4.2 0.6 0  4.4 0.6 0  4.6 0.6 0  4.8 0.6 0  5 0.6 0  5.2 0.6 0  5.4 0.6 0  5.6 0.6 0  5.8 0.6 0  6 0.6 0  6.2 0.6 0  6.4 0.6 0  6.6 0.6 0  6.8 0.6 0  7 0.6 0  7.2 0.6 0  7.4 0.6 0  7.6 0.6 0  7.8 0.6 0  8 0.6 0  8.199999999999999 0.6 0  8.4 0.6 0  8.6 0.6 0  8.800000000000001 0.6 0  9 0.6 0  9.199999999999999 0.6 0  9.4 0.6 0  9.6 0.6 0  9.800000000000001 0.6 0  10 0.6 0  0 0.8 0  0.2 0.8 0  0.4 0.8 0  0.6 0.8 0  0.8 0.8 0  1 0.8 0  1.2 0.8 0  1.4 0.8 0  1.6 0.8 0  1.8 0.8 0  2 0.8 0  2.2 0.8 0  2.4 0.8 0  2.6 0.8 0  2.8 0.8 0  3 0.8 0  3.2 0.8 0  3.4 0.8 0  3.6 0.8 0  3.8 0.8 0  4 0.8 0  4.2 0.8 0  4.4 0.8 0  4.6 0.8 0  4.8 0.8 0  5 0.8 0  5.2 0.8 0  5.4 0.8 0  5.6 0.8 0  5.8 0.8 0  6 0.8 0  6.2 0.8 0  6.4 0.8 0  6.6 0.8 0  6.8 0.8 0  7 0.8 0  7.2 0.8 0  7.4 0.8 0  7.6 0.8 0  7.8 0.8 0  8 0.8 0  8.199999999999999 0.8 0  8.4 0.8 0  8.6 0.8 0  8.800000000000001 0.8 0  9 0.8 0  9.199999999999999 0.8 0  9.4 0.8 0  9.6 0.8 0  9.800000000000001 0.8 0  10 0.8 0  0 1 0  0.2 1 0  0.4 1 0  0.6 1 0  0.8 1 0  1 1 0  1.2 1 0  1.4 1 0  1.6 1 0  1.8 1 0  2 1 0  2.2 1 0  2.4 1 0  2.6 1 0  2.8 1 0  3 1 0  3.2 1 0  3.4 1 0  3.6 1 0  3.8 1 0  4 1 0  4.2 1 0  4.4 1 0  4.6 1 0  4.8 1 0  5 1 0  5.2 1 0  5.4 1 0  5.6 1 0  5.8 1 0  6 1 0  6.2 1 0  6.4 1 0  6.6 1 0  6.8 1 0  7 1 0  7.2 1 0  7.4 1 0  7.6 1 0  7.8 1 0  8 1 0  8.199999999999999 1 0  8.4 1 0  8.6 1 0  8.800000000000001 1 0  9 1 0  9.199999999999999 1 0  9.4 1 0  9.6 1 0  9.800000000000001 1 0  10 1 0  0 1.2 0  0.2 1.2 0  0.4 1.2 0  0.6 1.2 0  0.8 1.2 0  1 1.2 0  1.2 1.2 0  1.4 1.2 0  1.6 1.2 0  1.8 1.2 0  2 1.2 0  2.2 1.2 0  2.4 1.2 0  2.6 1.2 0  2.8 1.2 0  3 1.2 0  3.2 1.2 0  3.4 1.2 0  3.6 1.2 0  3.8 1.2 0  4 1.2 0  4.2 1.2 0  4.4 1.2 0  4.6 1.2 0  4.8 1.2 0  5 1.2 0  5.2 1.2 0  5.4 1.2 0  5.6 1.2 0  5.8 1.2 0  6 1.2 0  6.2 1.2 0  6.4 1.2 0  6.6 1.2 0  6.8 1.2 0  7 1.2 0  7.2 1.2 0  7.4 1.2 0  7.6 1.2 0  7.8 1.2 0  8 1.2 0  8.199999999999999 1.2 0  8.4 1.2 0  8.6 1.2 0  8.800000000000001 1.2 0  9 1.2 0  9.199999999999999 1.2 0  9.4 1.2 0  9.6 1.2 0  9.800000000000001 1.2 0  10 1.2 0  0 1.4 0  0.2 1.4 0  0.4 1.4 0  0.6 1.4 0  0.8 1.4 0  1 1.4 0  1.2 1.4 0  1.4 1.4 0  1.6 1.4 0  1.8 1.4 0  2 1.4 0  2.2 1.4 0  2.4 1.4 0  2.6 1.4 0  2.8 1.4 0  3 1.4 0  3.2 1.4 0  3.4 1.4 0  3.6 1.4 0  3.8 1.4 0  4 1.4 0  4.2 1.4 0  4.4 1.4 0  4.6 1.4 0  4.8 1.4 0  5 1.4 0  5.2 1.4 0  5.4 1.4 0  5.6 1.4 0  5.8 1.4 0  6 1.4 0  6.2 1.4 0  6.4 1.4 0  6.6 1.4 0  6.8 1.4 0  7 1.4 0  7.2 1.4 0  7.4 1.4 0  7.6 1.4 0  7.8 1.4 0  8 1.4 0  8.199999999999999 1.4 0  8.4 1.4 0  8.6 1.4 0  8.800000000000001 1.4 0  9 1.4 0  9.199999999999999 1.4 0  9.4 1.4 0  9.6 1.4 0  9.800000000000001 1.4 0  10 1.4 0  0 1.6 0  0.2 1.6 0  0.4 1.6 0  0.6 1.6 0  0.8 1.6 0  1 1.6 0  1.2 1.6 0  1.4 1.6 0  1.6 1.6 0  1.8 1.6 0  2 1.6 0  2.2 1.6 0  2.4 1.6 0  2.6 1.6 0  2.8 1.6 0  3 1.6 0  3.2 1.6 0  3.4 1.6 0  3.6 1.6 0  3.8 1.6 0  4 1.6 0  4.2 1.6 0  4.4 1.6 0  4.6 1.6 0  4.8 1.6 0  5 1.6 0  5.2 1.6 0  5.4 1.6 0  5.6 1.6 0  5.8 1.6 0  6 1.6 0  6.2 1.6 0  6.4 1.6 0  6.6 1.6 0  6.8 1.6 0  7 1.6 0  7.2 1.6 0  7.4 1.6 0  7.6 1.6 0  7.8 1.6 0  8 1.6 0  8.199999999999999 1.6 0  8.4 1.6 0  8.6 1.6 0  8.800000000000001 1.6 0  9 1.6 0  9.199999999999999 1.6 0  9.4 1.6 0  9.6 1.6 0  9.800000000000001 1.6 0  10 1.6 0  0 1.8 0  0.2 1.8 0  0.4 1.8 0  0.6 1.8 0  0.8 1.8 0  1 1.8 0  1.2 1.8 0  1.4 1.8 0  1.6 1.8 0  1.8 1.8 0  2 1.8 0  2.2 1.8 0  2.4 1.8 0  2.6 1.8 0  2.8 1.8 0  3 1.8 0  3.2 1.8 0  3.4 1.8 0  3.6 1.8 0  3.8 1.8 0  4 1.8 0  4.2 1.8 0  4.4 1.8 0  4.6 1.8 0  4.8 1.8 0  5 1.8 0  5.2 1.8 0  5.4 1.8 0  5.6 1.8 0  5.8 1.8 0  6 1.8 0  6.2 1.8 0  6.4 1.8 0  6.6 1.8 0  6.8 1.8 0  7 1.8 0  7.2 1.8 0  7.4 1.8 0  7.6 1.8 0  7.8 1.8 0  8 1.8 0  8.199999999999999 1.8 0  8.4 1.8 0  8.6 1.8 0  8.800000000000001 1.8 0  9 1.8 0  9.199999999999999 1.8 0  9.4 1.8 0  9.6 1.8 0  9.800000000000001 1.8 0  10 1.8 0  0 2 0  0.2 2 0  0.4 2 0  0.6 2 0  0.8 2 0  1 2 0  1.2 2 0  1.4 2 0  1.6 2 0  1.8 2 0  2 2 0  2.2 2 0  2.4 2 0  2.6 2 0  2.8 2 0  3 2 0  3.2 2 0  3.4 2 0  3.6 2 0  3.8 2 0  4 2 0  4.2 2 0  4.4 2 0  4.6 2 0  4.8 2 0  5 2 0  5.2 2 0  5.4 2 0  5.6 2 0  5.8 2 0  6 2 0  6.2 2 0  6.4 2 0  6.6 2 0  6.8 2 0  7 2 0  7.2 2 0  7.4 2 0  7.6 2 0  7.8 2 0  8 2 0  8.199999999999999 2 0  8.4 2 0  8.6 2 0  8.800000000000001 2 0  9 2 0  9.199999999999999 2 0  9.4 2 0  9.6 2 0  9.800000000000001 2 0  10 2 0  0 2.2 0  0.2 2.2 0  0.4 2.2 0  0.6 2.2 0  0.8 2.2 0  1 2.2 0  1.2 2.2 0  1.4 2.2 0  1.6 2.2 0  1.8 2.2 0  2 2.2 0  2.2 2.2 0  2.4 2.2 0  2.6 2.2 0  2.8 2.2 0  3 2.2 0  3.2 2.2 0  3.4 2.2 0  3.6 2.2 0  3.8 2.2 0  4 2.2 0  4.2 2.2 0  4.4 2.2 0  4.6 2.2 0  4.8 2.2 0  5 2.2 0  5.2 2.2 0  5.4 2.2 0  5.6 2.2 0  5.8 2.2 0  6 2.2 0  6.2 2.2 0  6.4 2.2 0  6.6 2.2 0  6.8 2.2 0  7 2.2 0  7.2 2.2 0  7.4 2.2 0  7.6 2.2 0  7.8 2.2 0  8 2.2 0  8.199999999999999 2.2 0  8.4 2.2 0  8.6 2.2 0  8.800000000000001 2.2 0  9 2.2 0  9.199999999999999 2.2 0  9.4 2.2 0  9.6 2.2 0  9.800000000000001 2.2 0  10 2.2 0  0 2.4 0  0.2 2.4 0  0.4 2.4 0  0.6 2.4 0  0.8 2.4 0  1 2.4 0  1.2 2.4 0  1.4 2.4 0  1.6 2.4 0  1.8 2.4 0  2 2.4 0  2.2 2.4 0  2.4 2.4 0  2.6 2.4 0  2.8 2.4 0  3 2.4 0  3.2 2.4 0  3.4 2.4 0  3.6 2.4 0  3.8 2.4 0  4 2.4 0  4.2 2.4 0  4.4 2.4 0  4.6 2.4 0  4.8 2.4 0  5 2.4 0  5.2 2.4 0  5.4 2.4 0  5.6 2.4 0  5.8 2.4 0  6 2.4 0  6.2 2.4 0  6.4 2.4 0  6.6 2.4 0  6.8 2.4 0  7 2.4 0  7.2 2.4 0  7.4 2.4 0  7.6 2.4 0  7.8 2.4 0  8 2.4 0  8.199999999999999 2.4 0  8.4 2.4 0  8.6 2.4 0  8.800000000000001 2.4 0  9 2.4 0  9.199999999999999 2.4 0  9.4 2.4 0  9.6 2.4 0  9.800000000000001 2.4 0  10 2.4 0  0 2.6 0  0.2 2.6 0  0.4 2.6 0  0.6 2.6 0  0.8 2.6 0  1 2.6 0  1.2 2.6 0  1.4 2.6 0  1.6 2.6 0  1.8 2.6 0  2 2.6 0  2.2 2.6 0  2.4 2.6 0  2.6 2.6 0  2.8 2.6 0  3 2.6 0  3.2 2.6 0  3.4 2.6 0  3.6 2.6 0  3.8 2.6 0  4 2.6 0  4.2 2.6 0  4.4 2.6 0  4.6 2.6 0  4.8 2.6 0  5 2.6 0  5.2 2.6 0  5.4 2.6 0  5.6 2.6 0  5.8 2.6 0  6 2.6 0  6.2 2.6 0  6.4 2.6 0  6.6 2.6 0  6.8 2.6 0  7 2.6 0  7.2 2.6 0  7.4 2.6 0  7.6 2.6 0  7.8 2.6 0  8 2.6 0  8.199999999999999 2.6 0  8.4 2.6 0  8.6 2.6 0  8.800000000000001 2.6 0  9 2.6 0  9.199999999999999 2.6 0  9.4 2.6 0  9.6 2.6 0  9.800000000000001 2.6 0  10 2.6 0  0 2.8 0  0.2 2.8 0  0.4 2.8 0  0.6 2.8 0  0.8 2.8 0  1 2.8 0  1.2 2.8 0  1.4 2.8 0  1.6 2.8 0  1.8 2.8 0  2 2.8 0  2.2 2.8 0  2.4 2.8 0  2.6 2.8 0  2.8 2.8 0  3 2.8 0  3.2 2.8 0  3.4 2.8 0  3.6 2.8 0  3.8 2.8 0  4 2.8 0  4.2 2.8 0  4.4 2.8 0  4.6 2.8 0  4.8 2.8 0  5 2.8 0  5.2 2.8 0  5.4 2.8 0  5.6 2.8 0  5.8 2.8 0  6 2.8 0  6.2 2.8 0  6.4 2.8 0  6.6 2.8 0  6.8 2.8 0  7 2.8 0  7.2 2.8 0  7.4 2.8 0  7.6 2.8 0  7.8 2.8 0  8 2.8 0  8.199999999999999 2.8 0  8.4 2.8 0  8.6 2.8 0  8.800000000000001 2.8 0  9 2.8 0  9.199999999999999 2.8 0  9.4 2.8 0  9.6 2.8 0  9.800000000000001 2.8 0  10 2.8 0  0 3 0  0.2 3 0  0.4 3 0  0.6 3 0  0.8 3 0  1 3 0  1.2 3 0  1.4 3 0  1.6 3 0  1.8 3 0  2 3 0  2.2 3 0  2.4 3 0  2.6 3 0  2.8 3 0  3 3 0  3.2 3 0  3.4 3 0  3.6 3 0  3.8 3 0  4 3 0  4.2 3 0  4.4 3 0  4.6 3 0  4.8 3 0  5 3 0  5.2 3 0  5.4 3 0  5.6 3 0  5.8 3 0  6 3 0  6.2 3 0  6.4 3 0  6.6 3 0  6.8 3 0  7 3 0  7.2 3 0  7.4 3 0  7.6 3 0  7.8 3 0  8 3 0  8.199999999999999 3 0  8.4 3 0  8.6 3 0  8.800000000000001 3 0  9 3 0  9.199999999999999 3 0  9.4 3 0  9.6 3 0  9.800000000000001 3 0  10 3 0  0 3.2 0  0.2 3.2 0  0.4 3.2 0  0.6 3.2 0  0.8 3.2 0  1 3.2 0  1.2 3.2 0  1.4 3.2 0  1.6 3.2 0  1.8 3.2 0  2 3.2 0  2.2 3.2 0  2.4 3.2 0  2.6 3.2 0  2.8 3.2 0  3 3.2 0  3.2 3.2 0  3.4 3.2 0  3.6 3.2 0  3.8 3.2 0  4 3.2 0  4.2 3.2 0  4.4 3.2 0  4.6 3.2 0  4.8 3.2 0  5 3.2 0  5.2 3.2 0  5.4 3.2 0  5.6 3.2 0  5.8 3.2 0  6 3.2 0  6.2 3.2 0  6.4 3.2 0  6.6 3.2 0  6.8 3.2 0  7 3.2 0  7.2 3.2 0  7.4 3.2 0  7.6 3.2 0  7.8 3.2 0  8 3.2 0  8.199999999999999 3.2 0  8.4 3.2 0  8.6 3.2 0  8.800000000000001 3.2 0  9 3.2 0  9.199999999999999 3.2 0  9.4 3.2 0  9.6 3.2 0  9.800000000000001 3.2 0  10 3.2 0  0 3.4 0  0.2 3.4 0  0.4 3.4 0  0.6 3.4 0  0.8 3.4 0  1 
[...]
<PointData  Scalars="f_11"> 
<DataArray  type="Float64"  Name="f_11"  format="ascii">3.9253918494321609e+00  3.9242455171305513e+00  3.9175484215014489e+00  3.9068283811630597e+00  3.8925457011611342e+00  3.8750679734442808e+00  3.8546772932997340e+00  3.8316051029306868e+00  3.8060429430254068e+00  3.7781499780921011e+00  3.7480592986935251e+00  3.7158842006734991e+00  3.6817246114818927e+00  3.6456735159958464e+00  3.6078231453516891e+00  3.5682706795594923e+00  3.5271232266289578e+00  3.4845018601951514e+00  3.4405445227958924e+00  3.3954076380163394e+00  3.3492663274431353e+00  3.3023132008715734e+00  3.2547557789262824e+00  3.2068127092233807e+00  3.1587090386850378e+00  3.1106708910992720e+00  3.0629199562196252e+00  3.0156682139376820e+00  2.9691132900401871e+00  2.9234347722416989e+00  2.8787917172474358e+00  2.8353214671299090e+00  2.7931397833189755e+00  2.7523422138764335e+00  2.7130065443836773e+00  2.6751961483281916e+00  2.6389640467577311e+00  2.6043575017398344e+00  2.5714229935112725e+00  2.5402114561873157e+00  2.5107836622858923e+00  2.4832156473832634e+00  2.4576040572519071e+00  2.4340713024897713e+00  2.4127704758381263e+00  2.3938902817561822e+00  2.3776612308279415e+00  2.3643651340315563e+00  2.3543687164469822e+00  2.3481294382614486e+00  2.3471736384147777e+00  3.9264943210040495e+00  3.9253486009975029e+00  3.9192177828042674e+00  3.9087728892748625e+00  3.8947074644529618e+00  3.8773835903540843e+00  3.8571053214805766e+00  3.8341121205298649e+00  3.8086004235935929e+00  3.7807320490576966e+00  3.7506413119424451e+00  3.7184418608416503e+00  3.6842334483575612e+00  3.6481086086154346e+00  3.6101590532724779e+00  3.5704815607386475e+00  3.5291831309026636e+00  3.4863851863792767e+00  3.4422266190399924e+00  3.3968655119967877e+00  3.3504794182512310e+00  3.3032641513603616e+00  3.2554311392157915e+00  3.2072035018988343e+00  3.1588111255857627e+00  3.1104851002757017e+00  3.0624519533587558e+00  3.0149281313209473e+00  2.9681151530327767e+00  2.9221957838524202e+00  2.8773314722915386e+00  2.8336611679353472e+00  2.7913015198974702e+00  2.7503483558837880e+00  2.7108792736939793e+00  2.6729571432343553e+00  2.6366343145201023e+00  2.6019573472263451e+00  2.5689721088703403e+00  2.5377291202382009e+00  2.5082890491580336e+00  2.4807282634965500e+00  2.4551443570926779e+00  2.4316615862966402e+00  2.4104362960903085e+00  2.3916626267060876e+00  2.3755795734614806e+00  2.3624912883070066e+00  2.3527593557615400e+00  2.3470748884468984e+00  2.3461048062655494e+00  3.9330849992765242e+00  3.9313711248216698e+00  3.9252377418858955e+00  3.9149527933048360e+00  3.9010265584712811e+00  3.8838194457283191e+00  3.8636245502553073e+00  3.8406785899450449e+00  3.8151747256567652e+00  3.7872709562624016e+00  3.7570973899624760e+00  3.7247632579144656e+00  3.6903639282980496e+00  3.6539878571561148e+00  3.6157232948588702e+00  3.5756645244716214e+00  3.5339173918351285e+00  3.4906038816226634e+00  3.4458654988283599e+00  3.3998652382296597e+00  3.3527879738722617e+00  3.3048391820393141e+00  3.2562420237448220e+00  3.2072329477612151e+00  3.1580561159240137e+00  3.1089570769844279e+00  3.0601762009114681e+00  3.0119424145256435e+00  2.9644677438879867e+00  2.9179430737996368e+00  2.8725353967525291e+00  2.8283866671303439e+00  2.7856142275121387e+00  2.7443126543464404e+00  2.7045567931855294e+00  2.6664057220971773e+00  2.6299073897857643e+00  2.5951037102241683e+00  2.5620359435233917e+00  2.5307502393982904e+00  2.5013032545206064e+00  2.4737677741801583e+00  2.4482382781255092e+00  2.4248364122986730e+00  2.4037164177915407e+00  2.3850708601844093e+00  2.3691375822584551e+00  2.3562112131130437e+00  2.3466530147889006e+00  2.3409719385848757e+00  2.3394351074441668e+00  3.9436325426363403e+00  3.9416401459536132e+00  3.9353381164772956e+00  3.9250460312350053e+00  3.9111618227785088e+00  3.8940036717831976e+00  3.8738411094149701e+00  3.8508956314433695e+00  3.8253483728478428e+00  3.7973466188354434e+00  3.7670103943782900e+00  3.7344393276542434e+00  3.6997197626263776e+00  3.6629319781465743e+00  3.6241573006128567e+00  3.5834848612236927e+00  3.5410177215783416e+00  3.4968780673667883e+00  3.4512111559349847e+00  3.4041877125567317e+00  3.3560045163633796e+00  3.3068830102250457e+00  3.2570659109841262e+00  3.2068119769007080e+00  3.1563892849568602e+00  3.1060675492764593e+00  3.0561101382960474e+00  3.0067664940770316e+00  2.9582656091340143e+00  2.9108110812297197e+00  2.8645780704896784e+00  2.8197122636627094e+00  2.7763307469806642e+00  2.7345245334117094e+00  2.6943623992789267e+00  2.6558956604122899e+00  2.6191635473280925e+00  2.5841989028029171e+00  2.5510340021053981e+00  2.5197063672179705e+00  2.4902644984352205e+00  2.4627734740605995e+00  2.4373203749766552e+00  2.4140194914409516e+00  2.3930172991805727e+00  2.3744972702229488e+00  2.3586847710829639e+00  2.3458533239254247e+00  2.3363240794578832e+00  2.3304955549583402e+00  2.3286881523732572e+00  3.9576748011641070e+00  3.9554603712440328e+00  3.9490068398768923e+00  3.9386526245941864e+00  3.9247542796218955e+00  3.9075986691573119e+00  3.8874292233488648e+00  3.8644466779449651e+00  3.8388142338077667e+00  3.8106627876135528e+00  3.7800969083372435e+00  3.7472015003159762e+00  3.7120490132700463e+00  3.6747070023142960e+00  3.6352457987392959e+00  3.5937460133629431e+00  3.5503055463802666e+00  3.5050457237646508e+00  3.4581161343417137e+00  3.4096977248940061e+00  3.3600037464771306e+00  3.3092782524923061e+00  3.2577920349390861e+00  3.2058361381229856e+00  3.1537133761199598e+00  3.1017285511039656e+00  3.0501782670794295e+00  2.9993413095492505e+00  2.9494704927456876e+00  2.9007866725170772e+00  2.8534753270879611e+00  2.8076857817322192e+00  2.7635328605437950e+00  2.7211005371242378e+00  2.6804470487574075e+00  2.6416109317180343e+00  2.6046175051988341e+00  2.5694854447905424e+00  2.5362332104473850e+00  2.5048852020789685e+00  2.4754775917831684e+00  2.4480638189833837e+00  2.4227197367394187e+00  2.3995483771196291e+00  2.3786842851245065e+00  2.3602973737323532e+00  2.3445962905148079e+00  2.3318319942864374e+00  2.3222972235194637e+00  2.3163513978596151e+00  2.3143348338196064e+00  3.9748416853622013e+00  3.9724671360338268e+00  3.9658807260772666e+00  3.9554512548001397e+00  3.9415133949527110e+00  3.9243335980592970e+00  3.9041319410353670e+00  3.8810866088866969e+00  3.8553391220819342e+00  3.8269994077740490e+00  3.7961516004685150e+00  3.7628606913525156e+00  3.7271799566887203e+00  3.6891590040542419e+00  3.6488522135345827e+00  3.6063272842218526e+00  3.5616735091098537e+00  3.5150092979716221e+00  3.4664883679185059e+00  3.4163039570047640e+00  3.3646904255637269e+00  3.3119217277147541e+00  3.2583064804553499e+00  3.2041797199437481e+00  3.1498918675088028e+00  3.0957958518860451e+00  3.0422336533034504e+00  2.9895236652024515e+00  2.9379501673711235e+00  2.8877558857181711e+00  2.8391381509085427e+00  2.7922486663681907e+00  2.7471964615333677e+00  2.7040533140460461e+00  2.6628608037900729e+00  2.6236381962818704e+00  2.5863904968968026e+00  2.5511162138413632e+00  2.5178145653053661e+00  2.4864920284146801e+00  2.4571682354536941e+00  2.4298812728216705e+00  2.4046924390368662e+00  2.3816904888552259e+00  2.3609953627021016e+00  2.3427614176670120e+00  2.3271803099035333e+00  2.3144844153545416e+00  2.3049498562662381e+00  2.2989169724556633e+00  2.2967576375872740e+00  3.9948479739543812e+00  3.9923531581250864e+00  3.9856631712362813e+00  3.9751684061864312e+00  3.9611910625309301e+00  3.9439827713125322e+00  3.9237429852761490e+00  3.9006269853087447e+00  3.8747521974949026e+00  3.8462038294846987e+00  3.8150409253058082e+00  3.7813032456582394e+00  3.7450190908283116e+00  3.7062140256882761e+00  3.6649203576766296e+00  3.6211871025014597e+00  3.5750900235681344e+00  3.5267411506795017e+00  3.4762969958292729e+00  3.4239645346709020e+00  3.3700039724079227e+00  3.3147274251273116e+00  3.2584929653533901e+00  3.2016940031154033e+00  3.1447446375442882e+00  3.0880622921262462e+00  3.0320494754633538e+00  2.9770767379396839e+00  2.9234687413288105e+00  2.8714948468520487e+00  2.8213648837159360e+00  2.7732299699356546e+00  2.7271876003730036e+00  2.6832898126859361e+00  2.6415531234754805e+00  2.6019690505347781e+00  2.5645143138241062e+00  2.5291601400271615e+00  2.4958804041274480e+00  2.4646585779486871e+00  2.4354936020355340e+00  2.4084048590274278e+00  2.3834364248116766e+00  2.3606607404190205e+00  2.3401818276521120e+00  2.3221382294360353e+00  2.3067060768072207e+00  2.2941033460157305e+00  2.2845962036397705e+00  2.2785160261856796e+00  2.2762577167998042e+00  4.0174584849324608e+00  4.0148750994501405e+00  4.0081132284907710e+00  3.9975777658146892e+00  3.9835808796962029e+00  3.9663611891571398e+00  3.9460987659046896e+00  3.9229256023361474e+00  3.8969330528171198e+00  3.8681782359007721e+00  3.8366905432660463e+00  3.8024789036659801e+00  3.7655401396302062e+00  3.7258685554351474e+00  3.6834667412073427e+00  3.6383574039966597e+00  3.5905958074472157e+00  3.5402821114173095e+00  3.4875725786961924e+00  3.4326883209875403e+00  3.3759200861720027e+00  3.3176276546934389e+00  3.2582328074871696e+00  3.1982055789191661e+00  3.1380445357446796e+00  3.0782529261805096e+00  3.0193134382015177e+00  2.9616647170065389e+00  2.9056825597408524e+00  2.8516678662442656e+00  2.7998422042804978e+00  2.7503505788355151e+00  2.7032699904082684e+00  2.6586218160155344e+00  2.6163859760460086e+00  2.5765151548217027e+00  2.5389478529862179e+00  2.5036195995784656e+00  2.4704721217410062e+00  2.4394606011422342e+00  2.4105593299817052e+00  2.3837661407544180e+00  2.3591059647498085e+00  2.3366338244786813e+00  2.3164375411991629e+00  2.2986405106337351e+00  2.2834051299206766e+00  2.2709379298765926e+00  2.2614981912089305e+00  2.2554116336743846e+00  2.2530894959984500e+00  4.0424773594709302e+00  4.0398320452852605e+00  4.0330328396109580e+00  4.0224926069253444e+00  4.0085130511525593e+00  3.9913193804157201e+00  3.9710721360521002e+00  3.9478791243726681e+00  3.9218036033305612e+00  3.8928712830252103e+00  3.8610772305590668e+00  3.8263935010378805e+00  3.7887780529626820e+00  3.7481853087592909e+00  3.7045785457168359e+00  3.6579440782857215e+00  3.6083068722788272e+00  3.5557467958918991e+00  3.5004141856462807e+00  3.4425428691514410e+00  3.3824583864325772e+00  3.3205790801243604e+00  3.2574081708786626e+00  3.1935159978374372e+00  3.1295132030724733e+00  3.0660174600378620e+00  3.0036178929459258e+00  2.9428420902583396e+00  2.8841302658409469e+00  2.8278197150506958e+00  2.7741406668037429e+00  2.7232225583219227e+00  2.6751082104251180e+00  2.6297726559762564e+00  2.5871434610651001e+00  2.5471200395537013e+00  2.5095903758943154e+00  2.4744444605671339e+00  2.4415844358270808e+00  2.4109318865517624e+00  2.3824329122614105e+00  2.3560616443296971e+00  2.3318228019793046e+00  2.3097537838324231e+00  2.2899267332985422e+00  2.2724510611143245e+00  2.2574770869133736e+00  2.2452017173336105e+00  2.2358783897555710e+00  2.2298277261081707e+00  2.2274712616144110e+00  4.0697405922562044e+00  4.0670571535008539e+00  4.0602585038052315e+00  4.0497593486646455e+00  4.0358492365983354e+00  4.0187384176583416e+00  3.9985668500395177e+00  3.9754167835932779e+00  3.9493211901843250e+00  3.9202709822237201e+00  3.8882220351721251e+00  3.8531029702580701e+00  3.8148244779026990e+00  3.7732908113280548e+00  3.7284139206792322e+00  3.6801304496250964e+00  3.6284214095164282e+00  3.5733337337256170e+00  3.5150021017227115e+00  3.4536685013078268e+00  3.3896961776199692e+00  3.3235742221497149e+00  3.2559094530813741e+00  3.1874036970396840e+00  3.1188170713689001e+00  3.0509209131898203e+00  2.9844467315393524e+00  2.9200389858729849e+00  2.8582189735809074e+00  2.7993647004745883e+00  2.7437080992173217e+00  2.6913475079468516e+00  2.6422709238258011e+00  2.5963846628626017e+00  2.5535425490313846e+00  2.5135721013688124e+00  2.4762957882273371e+00  2.4415468201432819e+00  2.4091799313626536e+00  2.3790781261103766e+00  2.3511565278369311e+00  2.3253643986375097e+00  2.3016862164264560e+00  2.2801425078168052e+00  2.2607910051395868e+00  2.2437286814625974e+00  2.2290953191390206e+00  2.2170793420887382e+00  2.2079283778769563e+00  2.2019573383643181e+00  2.1995924795014425e+00  4.0991098014218492e+00  4.0964106148686596e+00  4.0896540868470446e+00  4.0792510553124286e+00  4.0654766733603696e+00  4.0485242275365660e+00  4.0285116322090948e+00  4.0054940067798253e+00  3.9794718209993105e+00  3.9503978276201464e+00  3.9181837422017356e+00  3.8827077488918187e+00  3.8438238489303926e+00  3.8013740098117417e+00  3.7552039841830447e+00  3.7051834475291581e+00  3.6512306444315406e+00  3.5933409327200794e+00  3.5316174238245961e+00  3.4663004087000173e+00  3.3977907046745224e+00  3.3266609752805500e+00  3.2536491560437120e+00  3.1796299962578582e+00  3.1055645745520843e+00  3.0324328043274069e+00  2.9611588676218172e+00  2.8925422791835209e+00  2.8272065303331217e+00  2.7655730360398456e+00  2.7078619422307897e+00  2.6541154959437918e+00  2.6042359748409973e+00  2.5580292850897117e+00  2.5152467693645679e+00  2.4756204027622051e+00  2.4388892930735095e+00  2.4048175394375391e+00  2.3732047960318714e+00  2.3438914182337718e+00  2.3167600691496526e+00  2.2917353805459659e+00  2.2687828877395972e+00  2.2479081191767936e+00  2.2291564871220455e+00  2.2126145341265806e+00  2.1984131157750637e+00  2.1867330465761596e+00  2.1778157843276049e+00  2.1719693963332869e+00  2.1696197342802606e+00  4.1304660373857072e+00  4.1277729070691365e+00  4.1211039052988410e+00  4.1108606812554820e+00  4.0973016356416778e+00  4.0806010805734685e+00  4.0608534547781625e+00  4.0380853296180801e+00  4.0122627364365098e+00  3.9832972267048512e+00  3.9510515895159974e+00  3.9153464236611009e+00  3.8759688352110166e+00  3.8326846160649564e+00  3.7852553156244633e+00  3.7334615177407589e+00  3.6771332114043309e+00  3.6161871982653575e+00  3.5506698435882633e+00  3.4808011246187109e+00  3.4070131495772760e+00  3.3299738731089819e+00  3.2505858632036078e+00  3.1699520701934083e+00  3.0893063850088245e+00  3.0099155846344199e+00  2.9329683338077217e+00  2.8594724118600712e+00  2.7901803192195684e+00  2.7255558012945826e+00  2.6657826936753715e+00  2.6108073747656317e+00  2.5604004452480171e+00  2.5142228971895437e+00  2.4718855470124015e+00  2.4329955282235294e+00  2.3971882014511525e+00  2.3641459412408401e+00  2.3336067804653267e+00  2.3053662063283196e+00  2.2792750094534862e+00  2.2552354125333465e+00  2.2331970231167135e+00  2.2131536086333083e+00  2.1951413307494017e+00  2.1792389082511763e+00  2.1655701474098876e+00  2.1543091515030852e+00  2.1456907922543524e+00  2.1400149820407064e+00  2.1377024152630519e+00  4.1637034601526999e+00  4.1610381314278024e+00  4.1545058282438800e+00  4.1444940877464829e+00  4.1312423722121574e+00  4.1149043334998137e+00  4.0955499129002861e+00  4.0731762685907631e+00  4.0477137558608769e+00  4.0190304697274843e+00  3.9869362391881289e+00  3.9511873694389270e+00  3.9114936584366728e+00  3.8675294993952605e+00  3.8189511834798244e+00  3.7654226831713680e+00  3.7066519861460314e+00  3.6424391176269499e+00  3.5727349409446076e+00  3.4977063773838135e+00  3.4177989752503688e+00  3.3337827582686166e+00  3.2467640827189581e+00  3.1581477146221295e+00  3.0695418301035642e+00  2.9826137562133868e+00  2.8989213552802857e+00  2.8197562276776136e+00  2.7460337722146839e+00  2.6782509868526883e+00  2.6165121805523155e+00  2.5606049347395663e+00  2.5101002449544594e+00  2.4644524656885176e+00  2.4230826419949008e+00  2.3854381367048365e+00  2.3510287818584965e+00  2.3194439338058594e+00  2.2903561910008592e+00  2.2635171517595007e+00  2.2387494119442994e+00  2.2159376864320239e+00  2.1950208233913124e+00  2.1759856841447283e+00  2.1588633777973132e+00  2.1437281217366198e+00  2.1306989498973867e+00  2.1199443447317123e+00  2.1116922877208673e+00  2.1062332235199062e+00  2.1039782593503968e+00  4.1987230323885525e+00  4.1961074586536329e+00  4.1897644604370763e+00  4.1800629749173819e+00  4.1672217212348652e+00  4.1513725883501964e+00  4.1325607423097077e+00  4.1107540194501810e+00  4.0858470525847901e+00  4.0576636247554294e+00  4.0259580700029822e+00  3.9904170599419735e+00  3.9506635133909493e+00  3.9062649070681417e+00  3.8567489336300933e+00  3.8016300942896657e+00  3.7404511225073387e+00  3.6728425832048792e+00  3.5986018192548572e+00  3.5177877957842463e+00  3.4308209062210224e+00  3.3385673201714652e+00  3.2423791229832979e+00  3.1440599394418416e+00  3.0457370036738340e+00  2.9496464536389690e+00  2.8578715021735084e+00  2.7720969828599289e+00  2.6934432789892866e+00  2.6224153926340441e+00  2.5589630896768139e+00  2.5026160015751007e+00  2.4526459826971623e+00  2.4082167341139749e+00  2.3684979580500349e+00  2.3327381138192358e+00  2.3003009216263979e+00  2.2706755031700387e+00  2.2434703083050018e+00  2.2183990061312526e+00  2.1952639668519827e+00  2.1739407071264756e+00  2.1543650269106283e+00  2.1365235290382834e+00  2.1204476586807131e+00  2.1062111924258211e+00  2.0939310953974872e+00  2.0837715579313034e+00  2.0759535289715978e+00  2.0707567388105645e+00  2.0685785643212440e+00  4.2354264642035346e+00  4.2328828716960025e+00  4.2267845877996599e+00  4.2174779422250035e+00  4.2051596423609743e+00  4.1899394932339220e+00  4.1718386323980017e+00  4.1507970037437154e+00  4.1266751835715691e+00  4.0992539036702880e+00  4.0682319451285194e+00  4.0332236713319887e+00  3.9937580236772510e+00  3.9492816304255172e+00  3.8991698258216902e+00  3.8427507458678178e+00  3.7793489536801390e+00  3.7083555588859132e+00  3.6293302905012230e+00  3.5421356807243285e+00  3.4470926370421995e+00  3.3451299613830283e+00  3.2378816331683087e+00  3.1276749534573964e+00  3.0173643503613485e+00  2.9100088429289164e+00  2.8084556413190778e+00  2.7149446297119209e+00  2.6308513128735194e+00  2.5566314413702602e+00  2.4919508792553180e+00  2.4359257576038473e+00  2.3873849138826237e+00  2.3450903611247544e+00  2.3078876688351606e+00  2.2747871569148521e+00  2.2449918846806227e+00  2.2178918643056860e+00  2.1930409670660604e+00  2.1701279628891723e+00  2.1489484592794112e+00  2.1293810699724283e+00  2.1113689871298220e+00  2.0949069694259888e+00  2.0800332610601933e+00  2.0668258652551303e+00  2.0554026999758110e+00  2.0459251564805663e+00  2.0386071233862939e+00  2.0337164293054490e+00  2.0316328252158704e+00  4.2737106578341395e+00  4.2712614299719815e+00  4.2654651080328128e+00  4.2566419255560417e+00  4.2449659439967311e+00  4.2305254749351837e+00  4.2133196018733630e+00  4.1932634567430807e+00  4.1701874204654006e+00  4.1438332904647002e+00  4.1138478272763681e+00  4.0797746992503985e+00  4.0410465000549385e+00  3.9969795970584521e+00  3.9467762442343024e+00  3.8895407210328710e+00  3.8243190845374930e+00  3.7501747619487515e+00  3.6663129912556918e+00  3.5722629192934749e+00  3.4681125447610635e+00  3.3547648317314573e+00  3.2341452130264443e+00  3.1092568108898941e+00  2.9839814113207699e+00  2.8625927323085363e+00  2.7490768901653175e+00  2.6464737478634563e+00  2.5564680080013296e+00  2.4793459954018107e+00  2.4142671387488241e+00  2.3596918386031498e+00  2.3138026379982288e+00  2.2748200783222132e+00  2.2411876347756601e+00  2.2116467555731574e+00  2.1852392448813136e+00  2.1612713676406394e+00  2.1392640159957925e+00  2.1189031785603660e+00  2.0999974944005260e+00  2.0824450874589413e+00  2.0662094820252239e+00  2.0513034023423433e+00  2.0377790429645493e+00  2.0257235707579953e+00  2.0152589308182800e+00  2.0065451792663889e+00  1.9997890983762467e+00  1.9952454191900375e+00  1.9932725705415186e+00  4.3134628877438379e+00  4.3111302808535550e+00  4.3056936846273484e+00  4.2974442852561303e+00  4.2865335298681089e+00  4.2730297786042604e+00  4.2569133501550231e+00  4.2380794759606122e+00  4.2163347452490108e+00  4.1913896257250824e+00  4.1628470686312342e+00  4.1301877300084398e+00  4.0927529779001635e+00  4.0497280618868805e