<?xml version="1.0"?>
<VTKFile type="UnstructuredGrid"  version="0.1"  >
<UnstructuredGrid>
<Piece  NumberOfPoints="5101" NumberOfCells="10000">
<Points>
<DataArray  type="Float64"  NumberOfComponents="3"  format="ascii">0 0 0  0.2 0 0  0.4 0 0  0.6 0 0  0.8 0 0  1 0 0  1.2 0 0  1.4 0 0  1.6 0 0  1.8 0 0  2 0 0  2.2 0 0  2.4 0 0  2.6 0 0  2.8 0 0  3 0 0  3.2 0 0  3.4 0 0  3.6 0 0  3.8 0 0  4 0 0  4.2 0 0  4.4 0 0  4.6 0 0  4.8 0 0  5 0 0  5.2 0 0  5.4 0 0  5.6 0 0  5.8 0 0  6 0 0  6.2 0 0  6.4 0 0  6.6 0 0  6.8 0 0  7 0 0  7.2 0 0  7.4 0 0  7.6 0 0  7.8 0 0  8 0 0  8.199999999999999 0 0  8.4 0 0  8.6 0 0  8.800000000000001 0 0  9 0 0  9.199999999999999 0 0  9.4 0 0  9.6 0 0  9.800000000000001 0 0  10 0 0  0 0.2 0  0.2 0.2 0  0.4 0.2 0  0.6 0.2 0  0.8 0.2 0  1 0.2 0  1.2 0.2 0  1.4 0.2 0  1.6 0.2 0  1.8 0.2 0  2 0.2 0  2.2 0.2 0  2.4 0.2 0  2.6 0.2 0  2.8 0.2 0  3 0.2 0  3.2 0.2 0  3.4 0.2 0  3.6 0.2 0  3.8 0.2 0  4 0.2 0  4.2 0.2 0  4.4 0.2 0  4.6 0.2 0  4.8 0.2 0  5 0.2 0  5.2 0.2 0  5.4 0.2 0  5.6 0.2 0  5.8 0.2 0  6 0.2 0  6.2 0.2 0  6.4 0.2 0  6.6 0.2 0  6.8 0.2 0  7 0.2 0  7.2 0.2 0  7.4 0.2 0  7.6 0.2 0  7.8 0.2 0  8 0.2 0  8.199999999999999 0.2 0  8.4 0.2 0  8.6 0.2 0  8.800000000000001 0.2 0  9 0.2 0  9.199999999999999 0.2 0  9.4 0.2 0  9.6 0.2 0  9.800000000000001 0.2 0  10 0.2 0  0 0.4 0  0.2 0.4 0  0.4 0.4 0  0.6 0.4 0  0.8 0.4 0  1 0.4 0  1.2 0.4 0  1.4 0.4 0  1.6 0.4 0  1.8 0.4 0  2 0.4 0  2.2 0.4 0  2.4 0.4 0  2.6 0.4 0  2.8 0.4 0  3 0.4 0  3.2 0.4 0  3.4 0.4 0  3.6 0.4 0  3.8 0.4 0  4 0.4 0  4.2 0.4 0  4.4 0.4 0  4.6 0.4 0  4.8 0.4 0  5 0.4 0  5.2 0.4 0  5.4 0.4 0  5.6 0.4 0  5.8 0.4 0  6 0.4 0  6.2 0.4 0  6.4 0.4 0  6.6 0.4 0  6.8 0.4 0  7 0.4 0  7.2 0.4 0  7.4 0.4 0  7.6 0.4 0  7.8 0.4 0  8 0.4 0  8.199999999999999 0.4 0  8.4 0.4 0  8.6 0.4 0  8.800000000000001 0.4 0  9 0.4 0  9.199999999999999 0.4 0  9.4 0.4 0  9.6 0.4 0  9.800000000000001 0.4 0  10 0.4 0  0 0.6 0  0.2 0.6 0  0.4 0.6 0  0.6 0.6 0  0.8 0.6 0  1 0.6 0  1.2 0.6 0  1.4 0.6 0  1.6 0.6 0  1.8 0.6 0  2 0.6 0  2.2 0.6 0  2.4 0.6 0  2.6 0.6 0  2.8 0.6 0  3 0.6 0  3.2 0.6 0  3.4 0.6 0  3.6 0.6 0  3.8 0.6 0  4 0.6 0  4.2 0.6 0  4.4 0.6 0  4.6 0.6 0  4.8 0.6 0  5 0.6 0  5.2 0.6 0  5.4 0.6 0  5.6 0.6 0  5.8 0.6 0  6 0.6 0  6.2 0.6 0  6.4 0.6 0  6.6 0.6 0  6.8 0.6 0  7 0.6 0  7.2 0.6 0  7.4 0.6 0  7.6 0.6 0  7.8 0.6 0  8 0.6 0  8.199999999999999 0.6 0  8.4 0.6 0  8.6 0.6 0  8.800000000000001 0.6 0  9 0.6 0  9.199999999999999 0.6 0  9.4 0.6 0  9.6 0.6 0  9.800000000000001 0.6 0  10 0.6 0  0 0.8 0  0.2 0.8 0  0.4 0.8 0  0.6 0.8 0  0.8 0.8 0  1 0.8 0  1.2 0.8 0  1.4 0.8 0  1.6 0.8 0  1.8 0.8 0  2 0.8 0  2.2 0.8 0  2.4 0.8 0  2.6 0.8 0  2.8 0.8 0  3 0.8 0  3.2 0.8 0  3.4 0.8 0  3.6 0.8 0  3.8 0.8 0  4 0.8 0  4.2 0.8 0  4.4 0.8 0  4.6 0.8 0  4.8 0.8 0  5 0.8 0  5.2 0.8 0  5.4 0.8 0  5.6 0.8 0  5.8 0.8 0  6 0.8 0  6.2 0.8 0  6.4 0.8 0  6.6 0.8 0  6.8 0.8 0  7 0.8 0  7.2 0.8 0  7.4 0.8 0  7.6 0.8 0  7.8 0.8 0  8 0.8 0  8.199999999999999 0.8 0  8.4 0.8 0  8.6 0.8 0  8.800000000000001 0.8 0  9 0.8 0  9.199999999999999 0.8 0  9.4 0.8 0  9.6 0.8 0  9.800000000000001 0.8 0  10 0.8 0  0 1 0  0.2 1 0  0.4 1 0  0.6 1 0  0.8 1 0  1 1 0  1.2 1 0  1.4 1 0  1.6 1 0  1.8 1 0  2 1 0  2.2 1 0  2.4 1 0  2.6 1 0  2.8 1 0  3 1 0  3.2 1 0  3.4 1 0  3.6 1 0  3.8 1 0  4 1 0  4.2 1 0  4.4 1 0  4.6 1 0  4.8 1 0  5 1 0  5.2 1 0  5.4 1 0  5.6 1 0  5.8 1 0  6 1 0  6.2 1 0  6.4 1 0  6.6 1 0  6.8 1 0  7 1 0  7.2 1 0  7.4 1 0  7.6 1 0  7.8 1 0  8 1 0  8.199999999999999 1 0  8.4 1 0  8.6 1 0  8.800000000000001 1 0  9 1 0  9.199999999999999 1 0  9.4 1 0  9.6 1 0  9.800000000000001 1 0  10 1 0  0 1.2 0  0.2 1.2 0  0.4 1.2 0  0.6 1.2 0  0.8 1.2 0  1 1.2 0  1.2 1.2 0  1.4 1.2 0  1.6 1.2 0  1.8 1.2 0  2 1.2 0  2.2 1.2 0  2.4 1.2 0  2.6 1.2 0  2.8 1.2 0  3 1.2 0  3.2 1.2 0  3.4 1.2 0  3.6 1.2 0  3.8 1.2 0  4 1.2 0  4.2 1.2 0  4.4 1.2 0  4.6 1.2 0  4.8 1.2 0  5 1.2 0  5.2 1.2 0  5.4 1.2 0  5.6 1.2 0  5.8 1.2 0  6 1.2 0  6.2 1.2 0  6.4 1.2 0  6.6 1.2 0  6.8 1.2 0  7 1.2 0  7.2 1.2 0  7.4 1.2 0  7.6 1.2 0  7.8 1.2 0  8 1.2 0  8.199999999999999 1.2 0  8.4 1.2 0  8.6 1.2 0  8.800000000000001 1.2 0  9 1.2 0  9.199999999999999 1.2 0  9.4 1.2 0  9.6 1.2 0  9.800000000000001 1.2 0  10 1.2 0  0 1.4 0  0.2 1.4 0  0.4 1.4 0  0.6 1.4 0  0.8 1.4 0  1 1.4 0  1.2 1.4 0  1.4 1.4 0  1.6 1.4 0  1.8 1.4 0  2 1.4 0  2.2 1.4 0  2.4 1.4 0  2.6 1.4 0  2.8 1.4 0  3 1.4 0  3.2 1.4 0  3.4 1.4 0  3.6 1.4 0  3.8 1.4 0  4 1.4 0  4.2 1.4 0  4.4 1.4 0  4.6 1.4 0  4.8 1.4 0  5 1.4 0  5.2 1.4 0  5.4 1.4 0  5.6 1.4 0  5.8 1.4 0  6 1.4 0  6.2 1.4 0  6.4 1.4 0  6.6 1.4 0  6.8 1.4 0  7 1.4 0  7.2 1.4 0  7.4 1.4 0  7.6 1.4 0  7.8 1.4 0  8 1.4 0  8.199999999999999 1.4 0  8.4 1.4 0  8.6 1.4 0  8.800000000000001 1.4 0  9 1.4 0  9.199999999999999 1.4 0  9.4 1.4 0  9.6 1.4 0  9.800000000000001 1.4 0  10 1.4 0  0 1.6 0  0.2 1.6 0  0.4 1.6 0  0.6 1.6 0  0.8 1.6 0  1 1.6 0  1.2 1.6 0  1.4 1.6 0  1.6 1.6 0  1.8 1.6 0  2 1.6 0  2.2 1.6 0  2.4 1.6 0  2.6 1.6 0  2.8 1.6 0  3 1.6 0  3.2 1.6 0  3.4 1.6 0  3.6 1.6 0  3.8 1.6 0  4 1.6 0  4.2 1.6 0  4.4 1.6 0  4.6 1.6 0  4.8 1.6 0  5 1.6 0  5.2 1.6 0  5.4 1.6 0  5.6 1.6 0  5.8 1.6 0  6 1.6 0  6.2 1.6 0  6.4 1.6 0  6.6 1.6 0  6.8 1.6 0  7 1.6 0  7.2 1.6 0  7.4 1.6 0  7.6 1.6 0  7.8 1.6 0  8 1.6 0  8.199999999999999 1.6 0  8.4 1.6 0  8.6 1.6 0  8.800000000000001 1.6 0  9 1.6 0  9.199999999999999 1.6 0  9.4 1.6 0  9.6 1.6 0  9.800000000000001 1.6 0  10 1.6 0  0 1.8 0  0.2 1.8 0  0.4 1.8 0  0.6 1.8 0  0.8 1.8 0  1 1.8 0  1.2 1.8 0  1.4 1.8 0  1.6 1.8 0  1.8 1.8 0  2 1.8 0  2.2 1.8 0  2.4 1.8 0  2.6 1.8 0  2.8 1.8 0  3 1.8 0  3.2 1.8 0  3.4 1.8 0  3.6 1.8 0  3.8 1.8 0  4 1.8 0  4.2 1.8 0  4.4 1.8 0  4.6 1.8 0  4.8 1.8 0  5 1.8 0  5.2 1.8 0  5.4 1.8 0  5.6 1.8 0  5.8 1.8 0  6 1.8 0  6.2 1.8 0  6.4 1.8 0  6.6 1.8 0  6.8 1.8 0  7 1.8 0  7.2 1.8 0  7.4 1.8 0  7.6 1.8 0  7.8 1.8 0  8 1.8 0  8.199999999999999 1.8 0  8.4 1.8 0  8.6 1.8 0  8.800000000000001 1.8 0  9 1.8 0  9.199999999999999 1.8 0  9.4 1.8 0  9.6 1.8 0  9.800000000000001 1.8 0  10 1.8 0  0 2 0  0.2 2 0  0.4 2 0  0.6 2 0  0.8 2 0  1 2 0  1.2 2 0  1.4 2 0  1.6 2 0  1.8 2 0  2 2 0  2.2 2 0  2.4 2 0  2.6 2 0  2.8 2 0  3 2 0  3.2 2 0  3.4 2 0  3.6 2 0  3.8 2 0  4 2 0  4.2 2 0  4.4 2 0  4.6 2 0  4.8 2 0  5 2 0  5.2 2 0  5.4 2 0  5.6 2 0  5.8 2 0  6 2 0  6.2 2 0  6.4 2 0  6.6 2 0  6.8 2 0  7 2 0  7.2 2 0  7.4 2 0  7.6 2 0  7.8 2 0  8 2 0  8.199999999999999 2 0  8.4 2 0  8.6 2 0  8.800000000000001 2 0  9 2 0  9.199999999999999 2 0  9.4 2 0  9.6 2 0  9.800000000000001 2 0  10 2 0  0 2.2 0  0.2 2.2 0  0.4 2.2 0  0.6 2.2 0  0.8 2.2 0  1 2.2 0  1.2 2.2 0  1.4 2.2 0  1.6 2.2 0  1.8 2.2 0  2 2.2 0  2.2 2.2 0  2.4 2.2 0  2.6 2.2 0  2.8 2.2 0  3 2.2 0  3.2 2.2 0  3.4 2.2 0  3.6 2.2 0  3.8 2.2 0  4 2.2 0  4.2 2.2 0  4.4 2.2 0  4.6 2.2 0  4.8 2.2 0  5 2.2 0  5.2 2.2 0  5.4 2.2 0  5.6 2.2 0  5.8 2.2 0  6 2.2 0  6.2 2.2 0  6.4 2.2 0  6.6 2.2 0  6.8 2.2 0  7 2.2 0  7.2 2.2 0  7.4 2.2 0  7.6 2.2 0  7.8 2.2 0  8 2.2 0  8.199999999999999 2.2 0  8.4 2.2 0  8.6 2.2 0  8.800000000000001 2.2 0  9 2.2 0  9.199999999999999 2.2 0  9.4 2.2 0  9.6 2.2 0  9.800000000000001 2.2 0  10 2.2 0  0 2.4 0  0.2 2.4 0  0.4 2.4 0  0.6 2.4 0  0.8 2.4 0  1 2.4 0  1.2 2.4 0  1.4 2.4 0  1.6 2.4 0  1.8 2.4 0  2 2.4 0  2.2 2.4 0  2.4 2.4 0  2.6 2.4 0  2.8 2.4 0  3 2.4 0  3.2 2.4 0  3.4 2.4 0  3.6 2.4 0  3.8 2.4 0  4 2.4 0  4.2 2.4 0  4.4 2.4 0  4.6 2.4 0  4.8 2.4 0  5 2.4 0  5.2 2.4 0  5.4 2.4 0  5.6 2.4 0  5.8 2.4 0  6 2.4 0  6.2 2.4 0  6.4 2.4 0  6.6 2.4 0  6.8 2.4 0  7 2.4 0  7.2 2.4 0  7.4 2.4 0  7.6 2.4 0  7.8 2.4 0  8 2.4 0  8.199999999999999 2.4 0  8.4 2.4 0  8.6 2.4 0  8.800000000000001 2.4 0  9 2.4 0  9.199999999999999 2.4 0  9.4 2.4 0  9.6 2.4 0  9.800000000000001 2.4 0  10 2.4 0  0 2.6 0  0.2 2.6 0  0.4 2.6 0  0.6 2.6 0  0.8 2.6 0  1 2.6 0  1.2 2.6 0  1.4 2.6 0  1.6 2.6 0  1.8 2.6 0  2 2.6 0  2.2 2.6 0  2.4 2.6 0  2.6 2.6 0  2.8 2.6 0  3 2.6 0  3.2 2.6 0  3.4 2.6 0  3.6 2.6 0  3.8 2.6 0  4 2.6 0  4.2 2.6 0  4.4 2.6 0  4.6 2.6 0  4.8 2.6 0  5 2.6 0  5.2 2.6 0  5.4 2.6 0  5.6 2.6 0  5.8 2.6 0  6 2.6 0  6.2 2.6 0  6.4 2.6 0  6.6 2.6 0  6.8 2.6 0  7 2.6 0  7.2 2.6 0  7.4 2.6 0  7.6 2.6 0  7.8 2.6 0  8 2.6 0  8.199999999999999 2.6 0  8.4 2.6 0  8.6 2.6 0  8.800000000000001 2.6 0  9 2.6 0  9.199999999999999 2.6 0  9.4 2.6 0  9.6 2.6 0  9.800000000000001 2.6 0  10 2.6 0  0 2.8 0  0.2 2.8 0  0.4 2.8 0  0.6 2.8 0  0.8 2.8 0  1 2.8 0  1.2 2.8 0  1.4 2.8 0  1.6 2.8 0  1.8 2.8 0  2 2.8 0  2.2 2.8 0  2.4 2.8 0  2.6 2.8 0  2.8 2.8 0  3 2.8 0  3.2 2.8 0  3.4 2.8 0  3.6 2.8 0  3.8 2.8 0  4 2.8 0  4.2 2.8 0  4.4 2.8 0  4.6 2.8 0  4.8 2.8 0  5 2.8 0  5.2 2.8 0  5.4 2.8 0  5.6 2.8 0  5.8 2.8 0  6 2.8 0  6.2 2.8 0  6.4 2.8 0  6.6 2.8 0  6.8 2.8 0  7 2.8 0  7.2 2.8 0  7.4 2.8 0  7.6 2.8 0  7.8 2.8 0  8 2.8 0  8.199999999999999 2.8 0  8.4 2.8 0  8.6 2.8 0  8.800000000000001 2.8 0  9 2.8 0  9.199999999999999 2.8 0  9.4 2.8 0  9.6 2.8 0  9.800000000000001 2.8 0  10 2.8 0  0 3 0  0.2 3 0  0.4 3 0  0.6 3 0  0.8 3 0  1 3 0  1.2 3 0  1.4 3 0  1.6 3 0  1.8 3 0  2 3 0  2.2 3 0  2.4 3 0  2.6 3 0  2.8 3 0  3 3 0  3.2 3 0  3.4 3 0  3.6 3 0  3.8 3 0  4 3 0  4.2 3 0  4.4 3 0  4.6 3 0  4.8 3 0  5 3 0  5.2 3 0  5.4 3 0  5.6 3 0  5.8 3 0  6 3 0  6.2 3 0  6.4 3 0  6.6 3 0  6.8 3 0  7 3 0  7.2 3 0  7.4 3 0  7.6 3 0  7.8 3 0  8 3 0  8.199999999999999 3 0  8.4 3 0  8.6 3 0  8.800000000000001 3 0  9 3 0  9.199999999999999 3 0  9.4 3 0  9.6 3 0  9.800000000000001 3 0  10 3 0  0 3.2 0  0.2 3.2 0  0.4 3.2 0  0.6 3.2 0  0.8 3.2 0  1 3.2 0  1.2 3.2 0  1.4 3.2 0  1.6 3.2 0  1.8 3.2 0  2 3.2 0  2.2 3.2 0  2.4 3.2 0  2.6 3.2 0  2.8 3.2 0  3 3.2 0  3.2 3.2 0  3.4 3.2 0  3.6 3.2 0  3.8 3.2 0  4 3.2 0  4.2 3.2 0  4.4 3.2 0  4.6 3.2 0  4.8 3.2 0  5 3.2 0  5.2 3.2 0  5.4 3.2 0  5.6 3.2 0  5.8 3.2 0  6 3.2 0  6.2 3.2 0  6.4 3.2 0  6.6 3.2 0  6.8 3.2 0  7 3.2 0  7.2 3.2 0  7.4 3.2 0  7.6 3.2 0  7.8 3.2 0  8 3.2 0  8.199999999999999 3.2 0  8.4 3.2 0  8.6 3.2 0  8.800000000000001 3.2 0  9 3.2 0  9.199999999999999 3.2 0  9.4 3.2 0  9.6 3.2 0  9.800000000000001 3.2 0  10 3.2 0  0 3.4 0  0.2 3.4 0  0.4 3.4 0  0.6 3.4 0  0.8 3.4 0  1 
[...]
<PointData  Scalars="f_8"> 
<DataArray  type="Float64"  Name="f_8"  format="ascii">-4.2517332946968790e-04  1.0638085736994246e-03  1.8355215605338881e-03  2.1707430021285588e-03  2.4192951113144079e-03  2.6013117745833547e-03  2.7419561603614826e-03  2.8529760195027979e-03  2.9422498916204486e-03  3.0148742908697648e-03  3.0742293420855473e-03  3.1224788855995301e-03  3.1608638883637644e-03  3.1898856962189861e-03  3.2094317481777845e-03  3.2188750050616403e-03  3.2171660870431544e-03  3.2029295884764626e-03  3.1745704598024095e-03  3.1303916655197393e-03  3.0687203279137886e-03  2.9880364321831338e-03  2.8870962175957721e-03  2.7650418535201653e-03  2.6214899085450680e-03  2.4565931810625495e-03  2.2710731499963168e-03  2.0662230143338959e-03  1.8438835167497779e-03  1.6063952345045391e-03  1.3565318090483225e-03  1.0974189240533186e-03  8.3244404396710828e-04  5.6516221984965868e-04  2.9920372081199814e-04  3.8189777461646450e-05  -2.1433680708470216e-04  -4.5495907811773782e-04  -6.8040394768083788e-04  -8.8752266373287570e-04  -1.0732237090063631e-03  -1.2343435713227408e-03  -1.3674305850411410e-03  -1.4683967088699628e-03  -1.5319472584957761e-03  -1.5504402973571221e-03  -1.5127034809007853e-03  -1.3944691403294936e-03  -1.1766236266621019e-03  -5.0651089947638763e-04  8.4385769375259589e-04  2.0666118346801196e-03  1.1350203084597334e-02  1.6353505405478891e-02  1.9361983967751309e-02  2.1293942906099775e-02  2.2578964308236263e-02  2.3419705270261489e-02  2.3926516789255468e-02  2.4160377166511246e-02  2.4154385417620244e-02  2.3924655542910726e-02  2.3476647960212645e-02  2.2809285900667040e-02  2.1917959776304823e-02  2.0796968217013666e-02  1.9441660813463633e-02  1.7850384859131329e-02  1.6026232854007050e-02  1.3978515636811777e-02  1.1723841753659099e-02  9.2866686216813450e-03  6.6992084554272149e-03  4.0006223397458197e-03  1.2355139841739532e-03  -1.5481717672664269e-03  -4.3016498479036209e-03  -6.9779317378886093e-03  -9.5343066563656764e-03  -1.1934396065774100e-02  -1.4149575723567211e-02  -1.6159655797762802e-02  -1.7952815823066712e-02  -1.9524885717318974e-02  -2.0878129844393283e-02  -2.2019719862838710e-02  -2.2960074524029320e-02  -2.3711208154328416e-02  -2.4285174774862410e-02  -2.4692631235907134e-02  -2.4941475632894467e-02  -2.5035444786451665e-02  -2.4972464234724351e-02  -2.4742405130568669e-02  -2.4323644422474359e-02  -2.3677292786007258e-02  -2.2736724785977921e-02  -2.1386358175720779e-02  -1.9418853385187111e-02  -1.6399868335877501e-02  -1.1408679611369918e-02  -2.1373096209740721e-03  1.0049514675863874e-02  2.1219469241478498e-02  2.8526713520524459e-02  3.3428700687146602e-02  3.6766718372461538e-02  3.9053966640733184e-02  4.0579932411913142e-02  4.1514424996169988e-02  4.1955247214519022e-02  4.1956152901797314e-02  4.1542717182867901e-02  4.0722305188711970e-02  3.9490944586861872e-02  3.7838590456922130e-02  3.5753572014667209e-02  3.3226611760753290e-02  3.0254554111035514e-02  2.6843761069157875e-02  2.3013001698579300e-02  1.8795577691492961e-02  1.4240397724458740e-02  9.4117487524267417e-03  4.3876166950464661e-03  -7.4342710126777288e-04  -5.8865589007259956e-03  -1.0945846468395451e-02  -1.5829649868467289e-02  -2.0455665960282796e-02  -2.4755048797291509e-02  -2.8675181158555094e-02  -3.2180881539953583e-02  -3.5254059447176786e-02  -3.7892031855363259e-02  -4.0104849157670215e-02  -4.1912033338474194e-02  -4.3339108150894763e-02  -4.4414219053801836e-02  -4.5165023904740864e-02  -4.5615905806649357e-02  -4.5785430123297555e-02  -4.5683838534532124e-02  -4.5310227339652280e-02  -4.4648854226761771e-02  -4.3663672713763278e-02  -4.2289542177088121e-02  -4.0417277751375505e-02  -3.7866342611817302e-02  -3.4337542002505758e-02  -2.9308813778149600e-02  -2.1930504126514809e-02  -1.0730853601809800e-02  1.9611443830677967e-02  3.1428571228937191e-02  4.0010104440389847e-02  4.6166102290005652e-02  5.0574974407275791e-02  5.3699296949391268e-02  5.5843178209560071e-02  5.7196841868740682e-02  5.7874685273690767e-02  5.7939727270794827e-02  5.7420004482851457e-02  5.6319914806174841e-02  5.4628683675101604e-02  5.2327294414408601e-02  4.9394669756627103e-02  4.5813509391536451e-02  4.1575898570997430e-02  3.6688566561732146e-02  3.1177481714657083e-02  2.5091333868434873e-02  1.8503398699497724e-02  1.1511327642519959e-02  4.2345746796426872e-03  -3.1905525280450722e-03  -1.0617885726049613e-02  -1.7899758441705323e-02  -2.4895800849923416e-02  -3.1481120736625956e-02  -3.7552903163381772e-02  -4.3034716588082764e-02  -4.7878185403267381e-02  -5.2062090845894513e-02  -5.5589306004041703e-02  -5.8482192697919384e-02  -6.0777163254225192e-02  -6.2519051272369619e-02  -6.3755780682085914e-02  -6.4533618782867966e-02  -6.4893087275620417e-02  -6.4865410294145137e-02  -6.4469204912351225e-02  -6.3706951860524288e-02  -6.2560585719771300e-02  -6.0985254346302885e-02  -5.8899822730027473e-02  -5.6171922299499404e-02  -5.2594561110321160e-02  -4.7848736128390648e-02  -4.1459407208204707e-02  -3.2737371512562466e-02  -2.0865826943680388e-02  2.9468808512460004e-02  4.1618802887223437e-02  5.0891760157864209e-02  5.7874835953405347e-02  6.3073394994942827e-02  6.6879896069708913e-02  6.9571106095168908e-02  7.1331060728449247e-02  7.2272995805021750e-02  7.2457815064779746e-02  7.1908247759260774e-02  7.0619835786394816e-02  6.8569951309278176e-02  6.5725802865615912e-02  6.2052081817254870e-02  5.7518597705922152e-02  5.2107955631352114e-02  4.5823039732365491e-02  3.8693798177989416e-02  3.0782611011550502e-02  2.2187412796437496e-02  1.3041790179986067e-02  3.5115157909416774e-03  -6.2125897722962601e-03  -1.5925015992195465e-02  -2.5418111742737379e-02  -3.4495345801387613e-02  -4.2983601775048841e-02  -5.0742957508273796e-02  -5.7672829350861245e-02  -6.3713989111420025e-02  -6.8846629247776944e-02  -7.3085205235757830e-02  -7.6471117833542740e-02  -7.9064379436474000e-02  -8.0935272451018725e-02  -8.2156729565379255e-02  -8.2797831382768930e-02  -8.2918495458999028e-02  -8.2565162432558958e-02  -8.1767079093867462e-02  -8.0532619860072166e-02  -7.8844947078594657e-02  -7.6656153669842270e-02  -7.3878845575260310e-02  -7.0373965877248382e-02  -6.5933783798601694e-02  -6.0260972878842745e-02  -5.2946441224391516e-02  -4.3472288582823308e-02  -3.1242593353875130e-02  3.9286853669519783e-02  5.1634247458550456e-02  6.1353578346267021e-02  6.8907643594788251e-02  7.4707782200930078e-02  7.9079499541055670e-02  8.2263231005815868e-02  8.4422914860135673e-02  8.5658963670395966e-02  8.6021003711580654e-02  8.5519112530849817e-02  8.4133596417872103e-02  8.1823875435493409e-02  7.8537124394281094e-02  7.4217196630613963e-02  6.8814128511066511e-02  6.2294218900132627e-02  5.4650318074689223e-02  4.5911577886546359e-02  3.6151570474044575e-02  2.5493465568334175e-02  1.4110967374230184e-02  2.2240315373512507e-03  -9.9109711146938666e-03  -2.2016083739572086e-02  -3.3810066935753100e-02  -4.5027883426274826e-02  -5.5438716209261121e-02  -6.4860069972875967e-02  -7.3166224274861899e-02  -8.0290355483066372e-02  -8.6220740462637613e-02  -9.0992327823133948e-02  -9.4675441107776037e-02  -9.7363428531222831e-02  -9.9160779644569347e-02  -1.0017273766980790e-01  -1.0049689736956037e-01  -1.0021680348110391e-01  -9.9397210480907508e-02  -9.8080438250681801e-02  -9.6283135928339619e-02  -9.3992712740065265e-02  -9.1162685087335465e-02  -8.7706235947921291e-02  -8.3487477851120290e-02  -7.8310508553215141e-02  -7.1907665814319552e-02  -6.3931966531748652e-02  -5.3956238131303708e-02  -4.1507614042107344e-02  4.8944247950103444e-02  6.1427693634801508e-02  7.1462219461583237e-02  7.9449454717845258e-02  8.5737835883879163e-02  9.0603401213102563e-02  9.4251257849814515e-02  9.6820600672078427e-02  9.8392639657346084e-02  9.8999318386602905e-02  9.8631880092830457e-02  9.7249149535169846e-02  9.4785883045522878e-02  9.1161723391068969e-02  8.6291272810678832e-02  8.0095612180764067e-02  7.2515262129114647e-02  6.3524116238145689e-02  5.3143316804333540e-02  4.1453478027897027e-02  2.8603233999753463e-02  1.4811981013596253e-02  3.6506342994769740e-04  -1.4399404063211553e-02  -2.9111469206261571e-02  -4.3395824531308171e-02  -5.6900291980649741e-02  -6.9322113095762652e-02  -8.0428150866504622e-02  -9.0066318488424585e-02  -9.8167316275727889e-02  -1.0473756501822881e-01  -1.0984559356352469e-01  -1.1360479526361872e-01  -1.1615539777665200e-01  -1.1764788464369010e-01  -1.1822924549262281e-01  -1.1803257243858195e-01  -1.1716983214421851e-01  -1.1572719278161744e-01  -1.1376206057511805e-01  -1.1130092780495798e-01  -1.0833719253547311e-01  -1.0482823917266090e-01  -1.0069126679989966e-01  -9.5797671743157981e-02  -8.9966346616670204e-02  -8.2957054582927237e-02  -7.4466435386434049e-02  -6.4126221743019865e-02  -5.1522099207369401e-02  5.8411938749078164e-02  7.1000035416328100e-02  8.1287600690093803e-02  8.9637126532014708e-02  9.6356482375932154e-02  1.0168472650760960e-01  1.0579657517496674e-01  1.0880634673835406e-01  1.1077334263167421e-01  1.1170784004403900e-01  1.1157739420384465e-01  1.1031352762428256e-01  1.0781923841467124e-01  1.0397795907292032e-01  9.8664628245192273e-02  9.1759380784329006e-02  8.3163986782425439e-02  7.2820558324422857e-02  6.0731217789455436e-02  4.6976490957732035e-02  3.1729368388794928e-02  1.5261582466495976e-02  -2.0609908945486916e-03  -1.9795563595713904e-02  -3.7451822683160371e-02  -5.4530313192881777e-02  -7.0564294501387084e-02  -8.5158335853091432e-02  -9.8017373954910669e-02  -1.0896202091752989e-01  -1.1792893223194088e-01  -1.2495805888948877e-01  -1.3017075597778791e-01  -1.3374356584047239e-01  -1.3588210287672584e-01  -1.3679825918222541e-01  -1.3669245429731655e-01  -1.3574130006548618e-01  -1.3409008145385171e-01  -1.3184891852891217e-01  -1.2909130399636307e-01  -1.2585378657129437e-01  -1.2213578123657493e-01  -1.1789875792754115e-01  -1.1306436060632316e-01  -1.0751134773487039e-01  -1.0107165208582969e-01  -9.3526184089539888e-02  -8.4601753106557376e-02  -7.3965905112788902e-02  -6.1240347176747228e-02  6.7693786199851558e-02  8.0371614155115123e-02  9.0884369855298450e-02  9.9567019496577286e-02  1.0669875327826800e-01  1.1249079483532795e-01  1.1709265057128743e-01  1.2059567178323201e-01  1.2303686608121014e-01  1.2440281197289819e-01  1.2463387893999441e-01  1.2362913331012591e-01  1.2125259710750146e-01  1.1734175503296992e-01  1.1171930711253028e-01  1.0420906273726202e-01  9.4656472905613243e-02  8.2953515367652761e-02  6.9066452659308150e-02  5.3063475320009379e-02  3.5137720637585690e-02  1.5620137874774639e-02  -5.0232054895951598e-03  -2.6212995121513798e-02  -4.7297829494540998e-02  -6.7610223737659972e-02  -8.6528781480635072e-02  -1.0353554448838727e-01  -1.1825820437399155e-01  -1.3049045875469009e-01  -1.4018906809264825e-01  -1.4745127502847732e-01  -1.5247961597226567e-01  -1.5554211199553625e-01  -1.5693467791101368e-01  -1.5695023856628915e-01  -1.5585647544333731e-01  -1.5388204358486923e-01  -1.5120979526124387e-01  -1.4797499442742812e-01  -1.4426650463363422e-01  -1.4012924636632840e-01  -1.3556665649345187e-01  -1.3054232432784463e-01  -1.2498037389465243e-01  -1.1876450040322566e-01  -1.1173585680278214e-01  -1.0369005010266562e-01  -9.4374069724835405e-02  -8.3478822318720558e-02  -7.0649983006748532e-02  7.6800566929558889e-02  8.9562164683217191e-02  1.0029254022847096e-01  1.0930488669023398e-01  1.1685694413162542e-01  1.2313860924139498e-01  1.2827896465357255e-01  1.3234931455559643e-01  1.3536561673480443e-01  1.3729044092390422e-01  1.3803496833561402e-01  1.3746168220038230e-01  1.3538871021505128e-01  1.3159710277285078e-01  1.2584257743021154e-01  1.1787330077222585e-01  1.0745493811655460e-01  9.4403279735967752e-02  7.8623096161928627e-02  6.0149505352771145e-02  3.9185407169669222e-02  1.6126261519875517e-02  -8.4371601033066401e-03  -3.3745260474833665e-02  -5.8927111937786790e-02  -8.3082927537459647e-02  -1.0537773965136714e-01  -1.2512799372238392e-01  -1.4186371398763381e-01  -1.5535531378758510e-01  -1.6560354411640651e-01  -1.7279987226813820e-01  -1.7726983584994474e-01  -1.7941265212436908e-01  -1.7964752727578287e-01  -1.7837262533687337e-01  -1.7593832973658616e-01  -1.7263333190034047e-01  -1.6868047873369940e-01  -1.6423894019731081e-01  -1.5940965555309833e-01  -1.5424175131570703e-01  -1.4873839953640236e-01  -1.4286124799531710e-01  -1.3653305401377075e-01  -1.2963849622530921e-01  -1.2202335087084247e-01  -1.1349214695188631e-01  -1.0380497701386661e-01  -9.2668553928968694e-02  -7.9746470807077405e-02  8.5736757741577296e-02  9.8581513161357201e-02  1.0953397934862021e-01  1.1888872163099500e-01  1.2688691429458365e-01  1.3370218326429406e-01  1.3944776668226083e-01  1.4417865259078116e-01  1.4789247418531576e-01  1.5052930660874489e-01  1.5197102682171204e-01  1.5204106693009561e-01  1.5050580327102617e-01  1.4707932793567546e-01  1.4143385947721504e-01  1.3321839610408132e-01  1.2208812208955193e-01  1.0774616954254693e-01  8.9997215038187126e-02  6.8808835952664293e-02  4.4371853730854997e-02  1.7146193643298748e-02  -1.2123814901248376e-02  -4.2438773642572411e-02  -7.2624047032189873e-02  -1.0145247640325336e-01  -1.2778793432609248e-01  -1.5071859865792406e-01  -1.6965002654155381e-01  -1.8433985640324846e-01  -1.9487323723341465e-01  -2.0159353185603196e-01  -2.0501090918364934e-01  -2.0571093860906470e-01  -2.0427882265595212e-01  -2.0124649345419576e-01  -1.9706268415744524e-01  -1.9208174077318987e-01  -1.8656531398097553e-01  -1.8069133556816355e-01  -1.7456589136881306e-01  -1.6823503568094281e-01  -1.6169484893322783e-01  -1.5489897030532437e-01  -1.4776343845291892e-01  -1.4016900780100319e-01  -1.3196125346452262e-01  -1.2294860802236424e-01  -1.1289910443266830e-01  -1.0153040664017324e-01  -8.8520773327290872e-02  9.4493747491340804e-02  1.0742424893723683e-01  1.1861027391294700e-01  1.2832977763096179e-01  1.3681119143402071e-01  1.4421635523320273e-01  1.5064743445308318e-01  1.5614781271070291e-01  1.6070119342547121e-01  1.6422888194344959e-01  1.6658590321320335e-01  1.6755683145770242e-01  1.6685276575995220e-01  1.6411165331265631e-01  1.5890508701653233e-01  1.5075560718735345e-01  1.3916904485651629e-01  1.2368593568387166e-01  1.0395368381074017e-01  7.9816194405288324e-02  5.1409987366463808e-02  1.9246688927410237e-02  -1.5745273748867278e-02  -5.2246843518547324e-02  -8.8657684068269405e-02  -1.2328070572227803e-01  -1.5454627972672294e-01  -1.8122190755875300e-01  -2.0255423430417532e-01  -2.1831242173172244e-01  -2.2873452563481392e-01  -2.3440614438687066e-01  -2.3611256157053370e-01  -2.3470112015868022e-01  -2.3097639693248725e-01  -2.2563527939012021e-01  -2.1923780372090393e-01  -2.1220414628364812e-01  -2.0482734663419480e-01  -1.9729314913833759e-01  -1.8970103216483641e-01  -1.8208298816381727e-01  -1.7441848606371560e-01  -1.6664524107178239e-01  -1.5866606369915137e-01  -1.5035232757614458e-01  -1.4154463806823572e-01  -1.3205099781641466e-01  -1.2164347445048908e-01  -1.1004738514171947e-01  -9.6953788831039764e-02  1.0304645395970288e-01  1.1606705045558154e-01  1.2750156616869279e-01  1.3761295390511391e-01  1.4662037978522599e-01  1.5467836783446956e-01  1.6188333531934063e-01  1.6827302063813593e-01  1.7382359447207793e-01  1.7844408893053526e-01  1.8196862848810744e-01  1.8414718987743009e-01  1.8463631780548972e-01  1.8299230079723086e-01  1.7867080139507732e-01  1.7103872054916466e-01  1.5940574643440100e-01  1.4308370819072860e-01  1.2148005728150754e-01  9.4225682825121157e-02  6.1325452074081029e-02  2.3303157192149510e-02  -1.8703998718119653e-02  -6.2952697693765144e-02  -1.0723905328401831e-01  -1.4917874917799220e-01  -1.8656468461445508e-01  -2.1770514402595592e-01  -2.4164516536016370e-01  -2.5821674854322230e-01  -2.6792740055943298e-01  -2.7174667340911257e-01  -2.7086668704024486e-01  -2.6649708793182508e-01  -2.5972477765693747e-01  -2.5144105465945532e-01  -2.4232220383783498e-01  -2.3284423353583344e-01  -2.2331443415710198e-01  -2.1390740838904884e-01  -2.0469832096959362e-01  -1.9569003628894949e-01  -1.8683331180499960e-01  -1.7804054637509842e-01  -1.6919412261382985e-01  -1.6015046066419497e-01  -1.5074076007232209e-01  -1.4076895431230310e-01  -1.3000817987606025e-01  -1.1818909701232899e-01  -1.0501444769628766e-01  1.1135202022008862e-01  1.2446771738362181e-01  1.3616626777697585e-01  1.4669719210908494e-01  1.5627387645801302e-01  1.6504827963290133e-01  1.7311715893852944e-01  1.8052000826160500e-01  1.8723416791071318e-01  1.9316624475980518e-01  1.9813996694083624e-01  2.0188078024487477e-01  2.0399825953246653e-01  2.0396875566511516e-01  2.0112282995698605e-01  1.9464502560426047e-01  1.8359711976190787e-01  1.6697917887392660e-01  1.4384327558960322e-01  1.1346897200098534e-01  7.5593412382587211e-02  3.0660229567220386e-02  -1.9983905610354461e-02  -7.4040689423377742e-02  -1.2844239061594054e-01  -1.7978010485002546e-01  -2.2488744578400863e-01  -2.6140174199022531e-01  -2.8811727353627553e-01  -3.0503280929180232e-01  -3.1312442515611216e-01  -3.1396762368057235e-01  -3.0935002202750278e-01  -3.0097187074775944e-01  -2.9026906809132169e-01  -2.7834585894229286e-01  -2.6598289063433939e-01  -2.5368515649171525e-01  -2.4174316041163701e-01  -2.3029131871425940e-01  -2.1935618736611193e-01  -2.0889257945955206e-01  -1.9880849773707762e-01  -1.8898092461840629e-01  -1.7926465648367984e-01  -1.6949606484878654e-01  -1.5949323281453864e-01  -1.4905323745585206e-01  -1.3794818487718249e-01  -1.2591253018825344e-01  -1.1266002605126775e-01  1.1934999699062432e-01  1.3256550391349414e-01  1.4454168596037986e-01  1.5551633373907800e-01  1.6570065747375479e-01  1.7524914271340272e-01  1.8426573700903554e-01  1.9280052311325671e-01  2.0084311596295337e-01  2.0831128182052747e-01  2.1503434394193965e-01  2.2073092402155822e-01  2.2498122579587310e-01  2.2719549008530299e-01  2.2658290023917960e-01  2.2212957610873441e-01  2.1260059521597469e-01  1.9658856067165761e-01  1.7263742923616149e-01  1.3946913486708551e-01  9.6322447297711389e-02  4.3368976450980166e-02  -1.7898634384265290e-02  -8.4479716166418584e-02  -1.5206221841766354e-01  -2.1567820041597691e-01  -2.7068051951157301e-01  -3.1370480864261430e-01  -3.4324755153989589e-01  -3.5968105070807332e-01  -3.6479162655195541e-01  -3.6110619834477370e-01  -3.5127017857915382e-01  -3.3762577509703184e-01  -3.2201289580231429e-01  -3.0573952530877191e-01  -2.8964871606624465e-01  -2.7422246987108723e-01  -2.5968557238031414e-01  -2.4609205234043893e-01  -2.3338955736168707e-01  -2.2146338021098896e-01  -2.1016425923624124e-01  -1.9932430462582534e-01  -1.8876471388780616e-01  -1.7829801451460472e-01  -1.6772673439392125e-01  -1.5683945652361694e-01  -1.4540611559064287e-01  -1.3316413576283334e-01  -1.1983792471401868e-01  1.2696376766465009e-01  1.4028261527431213e-01  1.5254565434732287e-01  1.6398081226450520e-01  1.7480077223420032e-01  1.8516781743652685e-01  1.9520043533218615e-01  2.0496923794353220e-01  2.1448932687630903e-01  2.2370686391053188e-01  2.3247868120135412e-01  2.4054336965379147e-01  2.4748254594054248e-01  2.5267208435146216e-01  2.5522577511352079e-01  2.5393923108979588e-01  2.4725117896604640e-01  2.3325324317657126e-01  2.0979622614278015e-01  1.7475312116577671e-01  1.2648933481040070e-01  6.4532512511663392e-02  -9.6913761784007922e-03  -9.2355424667244765e-02  -1.7735372213158224e-01  -2.5729417902817253e-01  -3.2517962368203807e-01  -3.7611246278535809e-01  -4.0827406074517025e-01  -4.2281919487391956e-01  -4.2293251794192144e-01  -4.1262132662113948e-01  -3.9573398361074924e-01  -3.7540609759020505e-01  -3.5389254204390769e-01  -3.3264074557458467e-01  -3.1246684855235679e-01  -2.9374467877758997e-01  -2.7656465437199329e-01  -2.6085059639155228e-01  -2.4643779636902785e-01  -2.3312101776026201e-01  -2.2068137367801993e-01  -2.0889934569443175e-01  -1.9755917276008575e-01  -1.8644808368466081e-01  -1.753525539645