<?xml version="1.0"?>
<VTKFile type="UnstructuredGrid"  version="0.1"  >
<UnstructuredGrid>
<Piece  NumberOfPoints="2601" NumberOfCells="5000">
<Points>
<DataArray  type="Float64"  NumberOfComponents="3"  format="ascii">0 0 0  0.02 0 0  0.04 0 0  0.06 0 0  0.08 0 0  0.1 0 0  0.12 0 0  0.14 0 0  0.16 0 0  0.18 0 0  0.2 0 0  0.22 0 0  0.24 0 0  0.26 0 0  0.28 0 0  0.3 0 0  0.32 0 0  0.34 0 0  0.36 0 0  0.38 0 0  0.4 0 0  0.42 0 0  0.44 0 0  0.46 0 0  0.48 0 0  0.5 0 0  0.52 0 0  0.54 0 0  0.5600000000000001 0 0  0.58 0 0  0.6 0 0  0.62 0 0  0.64 0 0  0.66 0 0  0.68 0 0  0.7 0 0  0.72 0 0  0.74 0 0  0.76 0 0  0.78 0 0  0.8 0 0  0.82 0 0  0.84 0 0  0.86 0 0  0.88 0 0  0.9 0 0  0.92 0 0  0.9399999999999999 0 0  0.96 0 0  0.98 0 0  1 0 0  0 0.02 0  0.02 0.02 0  0.04 0.02 0  0.06 0.02 0  0.08 0.02 0  0.1 0.02 0  0.12 0.02 0  0.14 0.02 0  0.16 0.02 0  0.18 0.02 0  0.2 0.02 0  0.22 0.02 0  0.24 0.02 0  0.26 0.02 0  0.28 0.02 0  0.3 0.02 0  0.32 0.02 0  0.34 0.02 0  0.36 0.02 0  0.38 0.02 0  0.4 0.02 0  0.42 0.02 0  0.44 0.02 0  0.46 0.02 0  0.48 0.02 0  0.5 0.02 0  0.52 0.02 0  0.54 0.02 0  0.5600000000000001 0.02 0  0.58 0.02 0  0.6 0.02 0  0.62 0.02 0  0.64 0.02 0  0.66 0.02 0  0.68 0.02 0  0.7 0.02 0  0.72 0.02 0  0.74 0.02 0  0.76 0.02 0  0.78 0.02 0  0.8 0.02 0  0.82 0.02 0  0.84 0.02 0  0.86 0.02 0  0.88 0.02 0  0.9 0.02 0  0.92 0.02 0  0.9399999999999999 0.02 0  0.96 0.02 0  0.98 0.02 0  1 0.02 0  0 0.04 0  0.02 0.04 0  0.04 0.04 0  0.06 0.04 0  0.08 0.04 0  0.1 0.04 0  0.12 0.04 0  0.14 0.04 0  0.16 0.04 0  0.18 0.04 0  0.2 0.04 0  0.22 0.04 0  0.24 0.04 0  0.26 0.04 0  0.28 0.04 0  0.3 0.04 0  0.32 0.04 0  0.34 0.04 0  0.36 0.04 0  0.38 0.04 0  0.4 0.04 0  0.42 0.04 0  0.44 0.04 0  0.46 0.04 0  0.48 0.04 0  0.5 0.04 0  0.52 0.04 0  0.54 0.04 0  0.5600000000000001 0.04 0  0.58 0.04 0  0.6 0.04 0  0.62 0.04 0  0.64 0.04 0  0.66 0.04 0  0.68 0.04 0  0.7 0.04 0  0.72 0.04 0  0.74 0.04 0  0.76 0.04 0  0.78 0.04 0  0.8 0.04 0  0.82 0.04 0  0.84 0.04 0  0.86 0.04 0  0.88 0.04 0  0.9 0.04 0  0.92 0.04 0  0.9399999999999999 0.04 0  0.96 0.04 0  0.98 0.04 0  1 0.04 0  0 0.06 0  0.02 0.06 0  0.04 0.06 0  0.06 0.06 0  0.08 0.06 0  0.1 0.06 0  0.12 0.06 0  0.14 0.06 0  0.16 0.06 0  0.18 0.06 0  0.2 0.06 0  0.22 0.06 0  0.24 0.06 0  0.26 0.06 0  0.28 0.06 0  0.3 0.06 0  0.32 0.06 0  0.34 0.06 0  0.36 0.06 0  0.38 0.06 0  0.4 0.06 0  0.42 0.06 0  0.44 0.06 0  0.46 0.06 0  0.48 0.06 0  0.5 0.06 0  0.52 0.06 0  0.54 0.06 0  0.5600000000000001 0.06 0  0.58 0.06 0  0.6 0.06 0  0.62 0.06 0  0.64 0.06 0  0.66 0.06 0  0.68 0.06 0  0.7 0.06 0  0.72 0.06 0  0.74 0.06 0  0.76 0.06 0  0.78 0.06 0  0.8 0.06 0  0.82 0.06 0  0.84 0.06 0  0.86 0.06 0  0.88 0.06 0  0.9 0.06 0  0.92 0.06 0  0.9399999999999999 0.06 0  0.96 0.06 0  0.98 0.06 0  1 0.06 0  0 0.08 0  0.02 0.08 0  0.04 0.08 0  0.06 0.08 0  0.08 0.08 0  0.1 0.08 0  0.12 0.08 0  0.14 0.08 0  0.16 0.08 0  0.18 0.08 0  0.2 0.08 0  0.22 0.08 0  0.24 0.08 0  0.26 0.08 0  0.28 0.08 0  0.3 0.08 0  0.32 0.08 0  0.34 0.08 0  0.36 0.08 0  0.38 0.08 0  0.4 0.08 0  0.42 0.08 0  0.44 0.08 0  0.46 0.08 0  0.48 0.08 0  0.5 0.08 0  0.52 0.08 0  0.54 0.08 0  0.5600000000000001 0.08 0  0.58 0.08 0  0.6 0.08 0  0.62 0.08 0  0.64 0.08 0  0.66 0.08 0  0.68 0.08 0  0.7 0.08 0  0.72 0.08 0  0.74 0.08 0  0.76 0.08 0  0.78 0.08 0  0.8 0.08 0  0.82 0.08 0  0.84 0.08 0  0.86 0.08 0  0.88 0.08 0  0.9 0.08 0  0.92 0.08 0  0.9399999999999999 0.08 0  0.96 0.08 0  0.98 0.08 0  1 0.08 0  0 0.1 0  0.02 0.1 0  0.04 0.1 0  0.06 0.1 0  0.08 0.1 0  0.1 0.1 0  0.12 0.1 0  0.14 0.1 0  0.16 0.1 0  0.18 0.1 0  0.2 0.1 0  0.22 0.1 0  0.24 0.1 0  0.26 0.1 0  0.28 0.1 0  0.3 0.1 0  0.32 0.1 0  0.34 0.1 0  0.36 0.1 0  0.38 0.1 0  0.4 0.1 0  0.42 0.1 0  0.44 0.1 0  0.46 0.1 0  0.48 0.1 0  0.5 0.1 0  0.52 0.1 0  0.54 0.1 0  0.5600000000000001 0.1 0  0.58 0.1 0  0.6 0.1 0  0.62 0.1 0  0.64 0.1 0  0.66 0.1 0  0.68 0.1 0  0.7 0.1 0  0.72 0.1 0  0.74 0.1 0  0.76 0.1 0  0.78 0.1 0  0.8 0.1 0  0.82 0.1 0  0.84 0.1 0  0.86 0.1 0  0.88 0.1 0  0.9 0.1 0  0.92 0.1 0  0.9399999999999999 0.1 0  0.96 0.1 0  0.98 0.1 0  1 0.1 0  0 0.12 0  0.02 0.12 0  0.04 0.12 0  0.06 0.12 0  0.08 0.12 0  0.1 0.12 0  0.12 0.12 0  0.14 0.12 0  0.16 0.12 0  0.18 0.12 0  0.2 0.12 0  0.22 0.12 0  0.24 0.12 0  0.26 0.12 0  0.28 0.12 0  0.3 0.12 0  0.32 0.12 0  0.34 0.12 0  0.36 0.12 0  0.38 0.12 0  0.4 0.12 0  0.42 0.12 0  0.44 0.12 0  0.46 0.12 0  0.48 0.12 0  0.5 0.12 0  0.52 0.12 0  0.54 0.12 0  0.5600000000000001 0.12 0  0.58 0.12 0  0.6 0.12 0  0.62 0.12 0  0.64 0.12 0  0.66 0.12 0  0.68 0.12 0  0.7 0.12 0  0.72 0.12 0  0.74 0.12 0  0.76 0.12 0  0.78 0.12 0  0.8 0.12 0  0.82 0.12 0  0.84 0.12 0  0.86 0.12 0  0.88 0.12 0  0.9 0.12 0  0.92 0.12 0  0.9399999999999999 0.12 0  0.96 0.12 0  0.98 0.12 0  1 0.12 0  0 0.14 0  0.02 0.14 0  0.04 0.14 0  0.06 0.14 0  0.08 0.14 0  0.1 0.14 0  0.12 0.14 0  0.14 0.14 0  0.16 0.14 0  0.18 0.14 0  0.2 0.14 0  0.22 0.14 0  0.24 0.14 0  0.26 0.14 0  0.28 0.14 0  0.3 0.14 0  0.32 0.14 0  0.34 0.14 0  0.36 0.14 0  0.38 0.14 0  0.4 0.14 0  0.42 0.14 0  0.44 0.14 0  0.46 0.14 0  0.48 0.14 0  0.5 0.14 0  0.52 0.14 0  0.54 0.14 0  0.5600000000000001 0.14 0  0.58 0.14 0  0.6 0.14 0  0.62 0.14 0  0.64 0.14 0  0.66 0.14 0  0.68 0.14 0  0.7 0.14 0  0.72 0.14 0  0.74 0.14 0  0.76 0.14 0  0.78 0.14 0  0.8 0.14 0  0.82 0.14 0  0.84 0.14 0  0.86 0.14 0  0.88 0.14 0  0.9 0.14 0  0.92 0.14 0  0.9399999999999999 0.14 0  0.96 0.14 0  0.98 0.14 0  1 0.14 0  0 0.16 0  0.02 0.16 0  0.04 0.16 0  0.06 0.16 0  0.08 0.16 0  0.1 0.16 0  0.12 0.16 0  0.14 0.16 0  0.16 0.16 0  0.18 0.16 0  0.2 0.16 0  0.22 0.16 0  0.24 0.16 0  0.26 0.16 0  0.28 0.16 0  0.3 0.16 0  0.32 0.16 0  0.34 0.16 0  0.36 0.16 0  0.38 0.16 0  0.4 0.16 0  0.42 0.16 0  0.44 0.16 0  0.46 0.16 0  0.48 0.16 0  0.5 0.16 0  0.52 0.16 0  0.54 0.16 0  0.5600000000000001 0.16 0  0.58 0.16 0  0.6 0.16 0  0.62 0.16 0  0.64 0.16 0  0.66 0.16 0  0.68 0.16 0  0.7 0.16 0  0.72 0.16 0  0.74 0.16 0  0.76 0.16 0  0.78 0.16 0  0.8 0.16 0  0.82 0.16 0  0.84 0.16 0  0.86 0.16 0  0.88 0.16 0  0.9 0.16 0  0.92 0.16 0  0.9399999999999999 0.16 0  0.96 0.16 0  0.98 0.16 0  1 0.16 0  0 0.18 0  0.02 0.18 0  0.04 0.18 0  0.06 0.18 0  0.08 0.18 0  0.1 0.18 0  0.12 0.18 0  0.14 0.18 0  0.16 0.18 0  0.18 0.18 0  0.2 0.18 0  0.22 0.18 0  0.24 0.18 0  0.26 0.18 0  0.28 0.18 0  0.3 0.18 0  0.32 0.18 0  0.34 0.18 0  0.36 0.18 0  0.38 0.18 0  0.4 0.18 0  0.42 0.18 0  0.44 0.18 0  0.46 0.18 0  0.48 0.18 0  0.5 0.18 0  0.52 0.18 0  0.54 0.18 0  0.5600000000000001 0.18 0  0.58 0.18 0  0.6 0.18 0  0.62 0.18 0  0.64 0.18 0  0.66 0.18 0  0.68 0.18 0  0.7 0.18 0  0.72 0.18 0  0.74 0.18 0  0.76 0.18 0  0.78 0.18 0  0.8 0.18 0  0.82 0.18 0  0.84 0.18 0  0.86 0.18 0  0.88 0.18 0  0.9 0.18 0  0.92 0.18 0  0.9399999999999999 0.18 0  0.96 0.18 0  0.98 0.18 0  1 0.18 0  0 0.2 0  0.02 0.2 0  0.04 0.2 0  0.06 0.2 0  0.08 0.2 0  0.1 0.2 0  0.12 0.2 0  0.14 0.2 0  0.16 0.2 0  0.18 0.2 0  0.2 0.2 0  0.22 0.2 0  0.24 0.2 0  0.26 0.2 0  0.28 0.2 0  0.3 0.2 0  0.32 0.2 0  0.34 0.2 0  0.36 0.2 0  0.38 0.2 0  0.4 0.2 0  0.42 0.2 0  0.44 0.2 0  0.46 0.2 0  0.48 0.2 0  0.5 0.2 0  0.52 0.2 0  0.54 0.2 0  0.5600000000000001 0.2 0  0.58 0.2 0  0.6 0.2 0  0.62 0.2 0  0.64 0.2 0  0.66 0.2 0  0.68 0.2 0  0.7 0.2 0  0.72 0.2 0  0.74 0.2 0  0.76 0.2 0  0.78 0.2 0  0.8 0.2 0  0.82 0.2 0  0.84 0.2 0  0.86 0.2 0  0.88 0.2 0  0.9 0.2 0  0.92 0.2 0  0.9399999999999999 0.2 0  0.96 0.2 0  0.98 0.2 0  1 0.2 0  0 0.22 0  0.02 0.22 0  0.04 0.22 0  0.06 0.22 0  0.08 0.22 0  0.1 0.22 0  0.12 0.22 0  0.14 0.22 0  0.16 0.22 0  0.18 0.22 0  0.2 0.22 0  0.22 0.22 0  0.24 0.22 0  0.26 0.22 0  0.28 0.22 0  0.3 0.22 0  0.32 0.22 0  0.34 0.22 0  0.36 0.22 0  0.38 0.22 0  0.4 0.22 0  0.42 0.22 0  0.44 0.22 0  0.46 0.22 0  0.48 0.22 0  0.5 0.22 0  0.52 0.22 0  0.54 0.22 0  0.5600000000000001 0.22 0  0.58 0.22 0  0.6 0.22 0  0.62 0.22 0  0.64 0.22 0  0.66 0.22 0  0.68 0.22 0  0.7 0.22 0  0.72 0.22 0  0.74 0.22 0  0.76 0.22 0  0.78 0.22 0  0.8 0.22 0  0.82 0.22 0  0.84 0.22 0  0.86 0.22 0  0.88 0.22 0  0.9 0.22 0  0.92 0.22 0  0.9399999999999999 0.22 0  0.96 0.22 0  0.98 0.22 0  1 0.22 0  0 0.24 0  0.02 0.24 0  0.04 0.24 0  0.06 0.24 0  0.08 0.24 0  0.1 0.24 0  0.12 0.24 0  0.14 0.24 0  0.16 0.24 0  0.18 0.24 0  0.2 0.24 0  0.22 0.24 0  0.24 0.24 0  0.26 0.24 0  0.28 0.24 0  0.3 0.24 0  0.32 0.24 0  0.34 0.24 0  0.36 0.24 0  0.38 0.24 0  0.4 0.24 0  0.42 0.24 0  0.44 0.24 0  0.46 0.24 0  0.48 0.24 0  0.5 0.24 0  0.52 0.24 0  0.54 0.24 0  0.5600000000000001 0.24 0  0.58 0.24 0  0.6 0.24 0  0.62 0.24 0  0.64 0.24 0  0.66 0.24 0  0.68 0.24 0  0.7 0.24 0  0.72 0.24 0  0.74 0.24 0  0.76 0.24 0  0.78 0.24 0  0.8 0.24 0  0.82 0.24 0  0.84 0.24 0  0.86 0.24 0  0.88 0.24 0  0.9 0.24 0  0.92 0.24 0  0.9399999999999999 0.24 0  0.96 0.24 0  0.98 0.24 0  1 0.24 0  0 0.26 0  0.02 0.26 0  0.04 0.26 0  0.06 0.26 0  0.08 0.26 0  0.1 0.26 0  0.12 0.26 0  0.14 0.26 0  0.16 0.26 0  0.18 0.26 0  0.2 0.26 0  0.22 0.26 0  0.24 0.26 0  0.26 0.26 0  0.28 0.26 0  0.3 0.26 0  0.32 0.26 0  0.34 0.26 0  0.36 0.26 0  0.38 0.26 0  0.4 0.26 0  0.42 0.26 0  0.44 0.26 0  0.46 0.26 0  0.48 0.26 0  0.5 0.26 0  0.52 0.26 0  0.54 0.26 0  0.5600000000000001 0.26 0  0.58 0.26 0  0.6 0.26 0  0.62 0.26 0  0.64 0.26 0  0.66 0.26 0  0.68 0.26 0  0.7 0.26 0  0.72 0.26 0  0.74 0.26 0  0.76 0.26 0  0.78 0.26 0  0.8 0.26 0  0.82 0.26 0  0.84 0.26 0  0.86 0.26 0  0.88 0.26 0  0.9 0.26 0  0.92 0.26 0  0.9399999999999999 0.26 0  0.96 0.26 0  0.98 0.26 0  1 0.26 0  0 0.28 0  0.02 0.28 0  0.04 0.28 0  0.06 0.28 0  0.08 0.28 0  0.1 0.28 0  0.12 0.28 0  0.14 0.28 0  0.16 0.28 0  0.18 0.28 0  0.2 0.28 0  0.22 0.28 0  0.24 0.28 0  0.26 0.28 0  0.28 0.28 0  0.3 0.28 0  0.32 0.28 0  0.34 0.28 0  0.36 0.28 0  0.38 0.28 0  0.4 0.28 0  0.42 0.28 0  0.44 0.28 0  0.46 0.28 0  0.48 0.28 0  0.5 0.28 0  0.52 0.28 0  0.54 0.28 0  0.5600000000000001 0.28 0  0.58 0.28 0  0.6 0.28 0  0.62 0.28 0  0.64 0.28 0  0.66 0.28 0  0.68 0.28 0  0.7 0.28 0  0.72 0.28 0  0.74 0.28 0  0.76 0.28 0  0.78 0.28 0  0.8 0.28 0  0.82 0.28 0  0.84 0.28 0  0.86 0.28
[...]
<PointData  Scalars="f_1200073"> 
<DataArray  type="Float64"  Name="f_1200073"  format="ascii">3.0012953727402564e-01  3.0001973208406857e-01  3.0001049153287251e-01  2.9999936444247799e-01  2.9999259546647350e-01  2.9998768824805905e-01  2.9998386950366884e-01  2.9998080507128960e-01  2.9997826874842820e-01  2.9997612189772677e-01  2.9997426963695600e-01  2.9997264402242263e-01  2.9997119446450204e-01  2.9996988200442387e-01  2.9996867583837955e-01  2.9996755109829160e-01  2.9996648739291804e-01  2.9996546780772365e-01  2.9996447819348604e-01  2.9996350663552562e-01  2.9996254303312808e-01  2.9996157875766727e-01  2.9996060635660349e-01  2.9995961927847287e-01  2.9995861163242232e-01  2.9995757798414602e-01  2.9995651316702426e-01  2.9995541212291982e-01  2.9995426978658857e-01  2.9995308098029638e-01  2.9995184030938954e-01  2.9995054206602523e-01  2.9994918012057209e-01  2.9994774777212563e-01  2.9994623754170452e-01  2.9994464088354417e-01  2.9994294778577285e-01  2.9994114622084261e-01  2.9993922138046392e-01  2.9993715461933812e-01  2.9993492188473997e-01  2.9993249156962293e-01  2.9992982066016333e-01  2.9992685030934130e-01  2.9992349027838516e-01  2.9991963432235458e-01  2.9991495320764527e-01  2.9990943341797310e-01  2.9990302263772767e-01  2.9987680083633189e-01  2.9999825447509099e-01  3.0003027557361689e-01  2.9889922657163459e-01  2.9803577071110948e-01  2.9733056818949377e-01  2.9673959193689664e-01  2.9623016059885371e-01  2.9578525797633282e-01  2.9539303907655801e-01  2.9504517612341868e-01  2.9473549391679288e-01  2.9445925043767213e-01  2.9421270981567932e-01  2.9399286876596020e-01  2.9379727583231385e-01  2.9362390711670450e-01  2.9347107831236829e-01  2.9333738086279787e-01  2.9322163465924744e-01  2.9312285236166558e-01  2.9304021205793784e-01  2.9297303606496761e-01  2.9292077435338770e-01  2.9288299154688852e-01  2.9285935681948577e-01  2.9284963620324467e-01  2.9285368693997427e-01  2.9287145369016071e-01  2.9290296649278297e-01  2.9294834036483924e-01  2.9300777655443760e-01  2.9308156555808151e-01  2.9317009200266636e-01  2.9327384157488412e-01  2.9339341030370164e-01  2.9352951664575816e-01  2.9368301705785577e-01  2.9385492606093355e-01  2.9404644225050497e-01  2.9425898239631909e-01  2.9449422685354626e-01  2.9475418117593005e-01  2.9504126180581164e-01  2.9535841814650676e-01  2.9570931391837696e-01  2.9609860439449581e-01  2.9653239016438199e-01  2.9701899047535585e-01  2.9757063981044751e-01  2.9820482921310759e-01  2.9896383318164910e-01  2.9988559550589594e-01  3.0002266475673683e-01  2.9810026233600767e-01  2.9650808428126524e-01  2.9516953912626859e-01  2.9402190103061993e-01  2.9302334838285948e-01  2.9214620391657486e-01  2.9137000308280508e-01  2.9067982343299886e-01  2.9006425165757682e-01  2.8951437122105650e-01  2.8902306652064796e-01  2.8858456492057694e-01  2.8819412269407663e-01  2.8784780351844402e-01  2.8754231867424634e-01  2.8727490937993616e-01  2.8704325859277863e-01  2.8684542374963284e-01  2.8667978481453943e-01  2.8654500371374797e-01  2.8643999244925883e-01  2.8636388811371905e-01  2.8631603340544376e-01  2.8629596164156429e-01  2.8630338582351306e-01  2.8633819135501903e-01  2.8640043194562742e-01  2.8649032876269753e-01  2.8660827292407576e-01  2.8675483116839262e-01  2.8693075507760796e-01  2.8713699434250767e-01  2.8737471445446494e-01  2.8764531963132295e-01  2.8795048228697201e-01  2.8829218081668173e-01  2.8867274824252626e-01  2.8909493543292630e-01  2.8956199437838320e-01  2.9007778966251352e-01  2.9064695080796182e-01  2.9127508461777657e-01  2.9196908157005053e-01  2.9273756274683466e-01  2.9359158602256408e-01  2.9454571194893275e-01  2.9561987730873679e-01  2.9684265683095035e-01  2.9825485516915168e-01  2.9992149940901480e-01  3.0001279256301122e-01  2.9746453715462495e-01  2.9527398384593495e-01  2.9338005450587151e-01  2.9172658475668406e-01  2.9027258607664391e-01  2.8898577068779124e-01  2.8784131807912861e-01  2.8682002876387397e-01  2.8590669294503746e-01  2.8508913191224222e-01  2.8435744457830758e-01  2.8370348919717470e-01  2.8312050586810306e-01  2.8260284062371177e-01  2.8214574041919493e-01  2.8174519866833991e-01  2.8139783692351528e-01  2.8110081344544874e-01  2.8085175184336358e-01  2.8064868445319707e-01  2.8049000768185062e-01  2.8037444652714844e-01  2.8030102649864858e-01  2.8026905209406355e-01  2.8027809150270699e-01  2.8032796585882558e-01  2.8041874324245292e-01  2.8055073799195790e-01  2.8072451370845980e-01  2.8094089058177657e-01  2.8120095857185734e-01  2.8150609594218218e-01  2.8185799350072560e-01  2.8225868604946247e-01  2.8271059260634807e-01  2.8321656753715224e-01  2.8377996566648289e-01  2.8440472575021525e-01  2.8509547858657752e-01  2.8585768874920325e-01  2.8669784323614261e-01  2.8762370578323770e-01  2.8864466768889996e-01  2.8977223090884952e-01  2.9102071346468988e-01  2.9240816699813371e-01  2.9395797804883522e-01  2.9569983885196216e-01  2.9767434023099926e-01  2.9992780857676615e-01  3.0000671429240383e-01  2.9694225382439626e-01  2.9424503059849882e-01  2.9186833286737374e-01  2.8976444298896886e-01  2.8789520011195047e-01  2.8622829402791622e-01  2.8473758968771451e-01  2.8340172021115495e-01  2.8220318978229120e-01  2.8112759076703964e-01  2.8016296176515276e-01  2.7929930664325575e-01  2.7852822031019403e-01  2.7784260270683597e-01  2.7723643778481133e-01  2.7670462180681932e-01  2.7624282878826290e-01  2.7584740593831086e-01  2.7551528794090696e-01  2.7524392894369093e-01  2.7503124752935071e-01  2.7487558233821124e-01  2.7477565936942278e-01  2.7473056434929188e-01  2.7473972386492740e-01  2.7480289090261628e-01  2.7492013960602518e-01  2.7509186223238624e-01  2.7531877215344280e-01  2.7560191457876337e-01  2.7594268161946983e-01  2.7634283418678063e-01  2.7680453144021028e-01  2.7733036781553555e-01  2.7792342037021434e-01  2.7858730841086349e-01  2.7932626826351070e-01  2.8014524742859903e-01  2.8105002396331591e-01  2.8204735891679672e-01  2.8314519280466088e-01  2.8435289989247570e-01  2.8568162164840577e-01  2.8714469474182985e-01  2.8875822863590145e-01  2.9054175289625400e-01  2.9251926086537305e-01  2.9471938291300198e-01  2.9717828047870803e-01  2.9993448534200023e-01  3.0000233667831239e-01  2.9649950883755544e-01  2.9336857869416910e-01  2.9057271042765181e-01  2.8807024289807698e-01  2.8582706926876661e-01  2.8381277057032817e-01  2.8200151910803145e-01  2.8037134310250666e-01  2.7890368186629205e-01  2.7758283093139091e-01  2.7639547635811118e-01  2.7533030017439308e-01  2.7437765485263643e-01  2.7352929958715594e-01  2.7277818924270786e-01  2.7211830418480315e-01  2.7154451406589591e-01  2.7105246561627305e-01  2.7063848614729558e-01  2.7029952024230414e-01  2.7003305362865065e-01  2.6983707707510973e-01  2.6971005037801282e-01  2.6965085445320558e-01  2.6965878025404355e-01  2.6973351052172118e-01  2.6987511954530635e-01  2.7008405376333094e-01  2.7036115985864662e-01  2.7070768089225411e-01  2.7112526689191402e-01  2.7161601267849311e-01  2.7218248474153400e-01  2.7282775945237303e-01  2.7355547543735192e-01  2.7436989709396542e-01  2.7527599230474387e-01  2.7627952902507424e-01  2.7738719431379588e-01  2.7860674203185526e-01  2.7994717661309726e-01  2.8141898066135679e-01  2.8303439814398107e-01  2.8480777173234811e-01  2.8675596988569635e-01  2.8889877288794702e-01  2.9125959204899438e-01  2.9386497629681840e-01  2.9674757394828805e-01  2.9993964761611558e-01  2.9999897152925159e-01  2.9611875662867126e-01  2.9261255440481237e-01  2.8945041300546215e-01  2.8659548080842534e-01  2.8401753156255766e-01  2.8168840148790869e-01  2.7958341357626321e-01  2.7768092665333588e-01  2.7596215021727244e-01  2.7441080775497728e-01  2.7301282791840081e-01  2.7175604927458380e-01  2.7062996288265295e-01  2.6962548952966314e-01  2.6873479958705621e-01  2.6795114741679188e-01  2.6726874946463286e-01  2.6668265957988374e-01  2.6618870271812223e-01  2.6578341794102173e-01  2.6546389065715265e-01  2.6522784092119012e-01  2.6507347708044665e-01  2.6499947656909950e-01  2.6500500942119820e-01  2.6508969005104066e-01  2.6525358370199031e-01  2.6549716717018412e-01  2.6582143688163695e-01  2.6622776543650700e-01  2.6671802279979068e-01  2.6729459830293179e-01  2.6796039984357567e-01  2.6871890352274264e-01  2.6957421328696940e-01  2.7053111756597903e-01  2.7159516790147892e-01  2.7277277078012491e-01  2.7407129834516053e-01  2.7549922153834805e-01  2.7706626984158572e-01  2.7878362043614802e-01  2.8066412190216017e-01  2.8272254116889156e-01  2.8497586192031316e-01  2.8744348486201643e-01  2.9014775020311029e-01  2.9311310219224390e-01  2.9636926945860048e-01  2.9994387685790247e-01  2.9999632048850761e-01  2.9578793223919381e-01  2.9195433686536976e-01  2.8847075054001659e-01  2.8530396980185596e-01  2.8242704388209450e-01  2.7981404888387340e-01  2.7744178602152159e-01  2.7528940848385169e-01  2.7333841527507574e-01  2.7157246215075331e-01  2.6997717117871162e-01  2.6853992668260379e-01  2.6724968861800669e-01  2.6609681334301999e-01  2.6507291017367313e-01  2.6417067319560189e-01  2.6338384559932637e-01  2.6270701091234422e-01  2.6213564326801281e-01  2.6166592784882203e-01  2.6129459881587597e-01  2.6101912451110904e-01  2.6083748761546044e-01  2.6074819216807121e-01  2.6075032865822045e-01  2.6084344209233046e-01  2.6102759867907083e-01  2.6130330708443844e-01  2.6167159796722295e-01  2.6213401450138801e-01  2.6269257704886734e-01  2.6334995228914720e-01  2.6410930222570811e-01  2.6497443708015855e-01  2.6594983015026735e-01  2.6704068143784476e-01  2.6825298790001945e-01  2.6959363078657955e-01  2.7107047137890644e-01  2.7269246493264343e-01  2.7446979266717603e-01  2.7641401091917484e-01  2.7853821942621787e-01  2.8085723296075832e-01  2.8338778532532899e-01  2.8614860559455763e-01  2.8916084558590893e-01  2.9244702305916753e-01  2.9603454506294136e-01  2.9994746268338762e-01  2.9999417523542971e-01  2.9549855115964585e-01  2.9137779072578335e-01  2.8761108384683876e-01  2.8416800429868838e-01  2.8102434478830163e-01  2.7815621679082014e-01  2.7554192856607440e-01  2.7316162468073657e-01  2.7099738179047050e-01  2.6903310611074543e-01  2.6725442840499392e-01  2.6564857404842546e-01  2.6420423430189377e-01  2.6291141840391719e-01  2.6176137552426387e-01  2.6074642480461668e-01  2.5986005898494513e-01  2.5909646537367265e-01  2.5845077116929827e-01  2.5791889525803235e-01  2.5749727693185148e-01  2.5718335318731539e-01  2.5697480895924690e-01  2.5687005885159769e-01  2.5686806558087760e-01  2.5696829964767143e-01  2.5717076638731012e-01  2.5747600317021813e-01  2.5788516917604259e-01  2.5839981879072932e-01  2.5902227359958935e-01  2.5975521308055788e-01  2.6060214385554165e-01  2.6156705032306188e-01  2.6265475522692028e-01  2.6387073600699029e-01  2.6522132113852948e-01  2.6671372936306470e-01  2.6835614680542935e-01  2.7015782689876267e-01  2.7212919452338741e-01  2.7428195827808194e-01  2.7662923292187330e-01  2.7918565367505777e-01  2.8196751551145383e-01  2.8499277059214684e-01  2.8828141544797881e-01  2.9185428159182136e-01  2.9573692556665138e-01  2.9995055272001570e-01  2.9999240502039054e-01  2.9524431227378045e-01  2.9087074413923708e-01  2.8685403653349073e-01  2.8316591365705945e-01  2.7978444479763337e-01  2.7668751423773219e-01  2.7385484984708053e-01  2.7126763428981604e-01  2.6890865475747971e-01  2.6676225111412083e-01  2.6481426732979413e-01  2.6305197558989324e-01  2.6146398605566196e-01  2.6004015464557584e-01  2.5877157471016010e-01  2.5765040769890085e-01  2.5666979143414154e-01  2.5582369004344990e-01  2.5510724079444441e-01  2.5451604545961459e-01  2.5404643708367119e-01  2.5369547576689894e-01  2.5346073245847350e-01  2.5334050881790082e-01  2.5333367005208751e-01  2.5343965288735743e-01  2.5365846548601312e-01  2.5399069574175082e-01  2.5443750125627751e-01  2.5500061914690947e-01  2.5568228289750816e-01  2.5648556447371379e-01  2.5741391193916313e-01  2.5847162362449760e-01  2.5966374887922672e-01  2.6099589839400844e-01  2.6247470052891975e-01  2.6410757251212119e-01  2.6590289148981044e-01  2.6787007011777214e-01  2.7001962531247237e-01  2.7236326283667539e-01  2.7491396343387370e-01  2.7768605568942484e-01  2.8069531269806358e-01  2.8395889973774074e-01  2.8749575120345677e-01  2.9132524437889340e-01  2.9547144829012151e-01  2.9995325051331051e-01  2.9999091865969429e-01  2.9502036314275232e-01  2.9042375611962590e-01  2.8618597774078158e-01  2.8228043701742284e-01  2.7868709524144408e-01  2.7538535930670838e-01  2.7235624216075971e-01  2.6958192886515830e-01  2.6704595683498095e-01  2.6473318950714353e-01  2.6262980206562014e-01  2.6072324882774967e-01  2.5900220284814146e-01  2.5745657491700724e-01  2.5607739027159915e-01  2.5485664610440817e-01  2.5378758635456089e-01  2.5286412079794562e-01  2.5208103438208779e-01  2.5143369301114077e-01  2.5091829139713440e-01  2.5053176570537344e-01  2.5027160852736208e-01  2.5013602101903665e-01  2.5012379933975742e-01  2.5023435077289274e-01  2.5046767811985615e-01  2.5082438019313902e-01  2.5130564726160776e-01  2.5191327482999226e-01  2.5264965947217610e-01  2.5351786517261832e-01  2.5452154417759787e-01  2.5566511892410004e-01  2.5695368792424944e-01  2.5839308585004489e-01  2.5999013964155765e-01  2.6175230542267419e-01  2.6368809385946262e-01  2.6580696755524658e-01  2.6811943127813059e-01  2.7063708669577563e-01  2.7337269307236733e-01  2.7634021007693133e-01  2.7955486702900201e-01  2.8303307906292119e-01  2.8679282908852965e-01  2.9085224591884939e-01  2.9523419049251154e-01  2.9995562757773453e-01  2.9998964966987868e-01  2.9482286811449843e-01  2.9002932158678424e-01  2.8559597952756233e-01  2.8149758840775346e-01  2.7771568967007865e-01  2.7423098896854287e-01  2.7102563718025685e-01  2.6808274795987147e-01  2.6538659391570918e-01  2.6292258870852980e-01  2.6067730271623424e-01  2.5863845617179981e-01  2.5679493599934627e-01  2.5513678367588649e-01  2.5365505130943489e-01  2.5234209890291820e-01  2.5119086496328102e-01  2.5019509431728176e-01  2.4934942645014702e-01  2.4864920497872092e-01  2.4809051968807336e-01  2.4767016314973928e-01  2.4738558669469235e-01  2.4723491328198435e-01  2.4721689714888820e-01  2.4733092198208231e-01  2.4757698638893466e-01  2.4795570242862683e-01  2.4846829608191071e-01  2.4911661202077781e-01  2.4990312275079271e-01  2.5083094563799641e-01  2.5190386136815973e-01  2.5312635638118869e-01  2.5450359550826435e-01  2.5604149877990301e-01  2.5774694647041196e-01  2.5962749721802297e-01  2.6169168566963158e-01  2.6394895625750819e-01  2.6640972675111158e-01  2.6908543501429022e-01  2.7198857346736388e-01  2.7513271131530087e-01  2.7853254649485043e-01  2.8220380162032649e-01  2.8616361821160347e-01  2.9042905364589344e-01  2.9502197688245324e-01  2.9995773582747293e-01  2.9998854771717615e-01  2.9464873326994340e-01  2.8968136320748106e-01  2.8507514072761236e-01  2.8080588691106073e-01  2.7685646917404400e-01  2.7320869804716141e-01  2.6984572025569314e-01  2.6675148989274639e-01  2.6391096650000723e-01  2.6131010754219530e-01  2.5893590061874433e-01  2.5677642315176619e-01  2.5482085448671010e-01  2.5305949307689191e-01  2.5148378567622504e-01  2.5008579050772206e-01  2.4885845555629077e-01  2.4779556672229475e-01  2.4689165142362302e-01  2.4614200703972378e-01  2.4554265218962579e-01  2.4509032125770458e-01  2.4478243117100273e-01  2.4461706440610928e-01  2.4459295109489521e-01  2.4470945945898145e-01  2.4496658691937490e-01  2.4536495759632873e-01  2.4590582207027778e-01  2.4659106177233606e-01  2.4742319773133464e-01  2.4840540380324305e-01  2.4954152249193010e-01  2.5083608395360524e-01  2.5229432507652955e-01  2.5392220284732392e-01  2.5572651179022610e-01  2.5771490032089311e-01  2.5989588027745186e-01  2.6227881668495812e-01  2.6487401654717707e-01  2.6769271968200725e-01  2.7074713461637712e-01  2.7405044403471668e-01  2.7761684510207219e-01  2.8146143314852939e-01  2.8560061069100157e-01  2.9005051470550319e-01  2.9483219079649226e-01  2.9995961441657243e-01  2.9998757343803328e-01  2.9449542518187227e-01  2.8937489063755678e-01  2.8461612003161985e-01  2.8019580785133497e-01  2.7609793865258403e-01  2.7230526206348654e-01  2.6880179178814556e-01  2.6557222644632195e-01  2.6260214611869298e-01  2.5987803177864904e-01  2.5738732672697462e-01  2.5511851340923702e-01  2.5306118370483188e-01  2.5120607955520630e-01  2.4954444482595803e-01  2.4806853123690425e-01  2.4677130410129799e-01  2.4564652158707292e-01  2.4468870549402871e-01  2.4389313945900123e-01  2.4325583040617779e-01  2.4277349119675948e-01  2.4244351669438038e-01  2.4226396978195591e-01  2.4223356801924076e-01  2.4235167384909601e-01  2.4261828781157674e-01  2.4303404533959891e-01  2.4360021669354875e-01  2.4431871052732093e-01  2.4519208076532811e-01  2.4622353669433400e-01  2.4741695609315859e-01  2.4877690011390530e-01  2.5030863079554977e-01  2.5201812783593441e-01  2.5391220102117579e-01  2.5599826676748277e-01  2.5828490565414114e-01  2.6078139469606354e-01  2.6349788017596770e-01  2.6644540327155136e-01  2.6963589833442553e-01  2.7308217707224841e-01  2.7679797620148316e-01  2.8079782994968372e-01  2.8509749428473036e-01  2.8971231486699300e-01  2.9466264674861958e-01  2.9996129374657798e-01  2.9998669526745941e-01  2.9436084653702221e-01  2.8910576398290377e-01  2.8421280710447994e-01  2.7965938828601555e-01  2.7543043492449698e-01  2.7150949519165329e-01  2.6788133282343074e-01  2.6453128922698160e-01  2.6144551779874753e-01  2.5861102648578610e-01  2.5601568458012186e-01  2.5364846694172644e-01  2.5149955119007611e-01  2.4955954133289956e-01  2.4781999880834629e-01  2.4627318576346099e-01  2.4491213152195315e-01  2.4373064345854378e-01  2.4272328931296677e-01  2.4188537157644660e-01  2.4121290539045981e-01  2.4070260313724240e-01  2.4035185799604808e-01  2.4015873104015184e-01  2.4012193973063359e-01  2.4024084959042205e-01  2.4051546847244579e-01  2.4094644361308104e-01  2.4153506147607867e-01  2.4228325041141863e-01  2.4319358606660205e-01  2.4426929946984258e-01  2.4551428749260651e-01  2.4693312551702604e-01  2.4853108286909020e-01  2.5031414411402497e-01  2.5228902903413380e-01  2.5446319231538411e-01  2.5684483795530522e-01  2.5944339524171950e-01  2.6226869385955975e-01  2.6533171103399977e-01  2.6864407293041115e-01  2.7221825125192556e-01  2.7606756778675107e-01  2.8020605928672560e-01  2.8464891764986761e-01  2.8941080829074178e-01  2.9451150124482572e-01  2.9996279801595144e-01  2.9998588739953758e-01  2.9424324816810821e-01  2.8887052511607419e-01  2.8386008500258086e-01  2.7918993670839742e-01  2.7484580357498356e-01  2.7081191591087145e-01  2.6707367820236477e-01  2.6361699164993641e-01  2.6042854564566564e-01  2.5749580546207507e-01  2.5480711596495814e-01  2.5235221151817172e-01  2.5012118501346275e-01  2.4810497565150474e-01  2.4629523327700764e-01  2.4468433290146929e-01  2.4326541582937197e-01  2.4203237691814664e-01  2.4097984231695657e-01  2.4010315435853180e-01  2.3939835770320705e-01  2.3886218521353172e-01  2.3849204499720145e-01  2.3828600952085577e-01  2.3824280650098578e-01  2.3836181197717868e-01  2.3864304544733606e-01  2.3908716727611706e-01  2.3969547837543828e-01  2.4046992216588153e-01  2.4141308877383996e-01  2.4252822135159649e-01  2.4381922438995221e-01  2.4529067393548826e-01  2.4694782988840211e-01  2.4879664863843284e-01  2.5084380085022506e-01  2.5309665163562195e-01  2.5556343016619909e-01  2.5825297719001006e-01  2.6117541829841345e-01  2.6434140305015952e-01  2.6776231113531584e-01  2.7145033790836642e-01  2.7541843158627560e-01  2.7968019139818789e-01  2.8425031845179288e-01  2.8914289435703067e-01  2.9437718871190810e-01  2.9996414692133738e-01  2.9998512843891362e-01  2.9414116523599804e-01  2.8866627450552745e-01  2.8355365497179996e-01  2.7878181624261872e-01  2.7433715336751913e-01  2.7020447669411485e-01  2.6636972178077906e-01  2.6281929486258820e-01  2.5954043353190420e-01  2.5652090638179731e-01  2.5374989523637398e-01  2.5121723688149650e-01  2.4891327