<?xml version="1.0"?>
<VTKFile type="UnstructuredGrid"  version="0.1"  >
<UnstructuredGrid>
<Piece  NumberOfPoints="2601" NumberOfCells="5000">
<Points>
<DataArray  type="Float64"  NumberOfComponents="3"  format="ascii">0 0 0  0.02 0 0  0.04 0 0  0.06 0 0  0.08 0 0  0.1 0 0  0.12 0 0  0.14 0 0  0.16 0 0  0.18 0 0  0.2 0 0  0.22 0 0  0.24 0 0  0.26 0 0  0.28 0 0  0.3 0 0  0.32 0 0  0.34 0 0  0.36 0 0  0.38 0 0  0.4 0 0  0.42 0 0  0.44 0 0  0.46 0 0  0.48 0 0  0.5 0 0  0.52 0 0  0.54 0 0  0.5600000000000001 0 0  0.58 0 0  0.6 0 0  0.62 0 0  0.64 0 0  0.66 0 0  0.68 0 0  0.7 0 0  0.72 0 0  0.74 0 0  0.76 0 0  0.78 0 0  0.8 0 0  0.82 0 0  0.84 0 0  0.86 0 0  0.88 0 0  0.9 0 0  0.92 0 0  0.9399999999999999 0 0  0.96 0 0  0.98 0 0  1 0 0  0 0.02 0  0.02 0.02 0  0.04 0.02 0  0.06 0.02 0  0.08 0.02 0  0.1 0.02 0  0.12 0.02 0  0.14 0.02 0  0.16 0.02 0  0.18 0.02 0  0.2 0.02 0  0.22 0.02 0  0.24 0.02 0  0.26 0.02 0  0.28 0.02 0  0.3 0.02 0  0.32 0.02 0  0.34 0.02 0  0.36 0.02 0  0.38 0.02 0  0.4 0.02 0  0.42 0.02 0  0.44 0.02 0  0.46 0.02 0  0.48 0.02 0  0.5 0.02 0  0.52 0.02 0  0.54 0.02 0  0.5600000000000001 0.02 0  0.58 0.02 0  0.6 0.02 0  0.62 0.02 0  0.64 0.02 0  0.66 0.02 0  0.68 0.02 0  0.7 0.02 0  0.72 0.02 0  0.74 0.02 0  0.76 0.02 0  0.78 0.02 0  0.8 0.02 0  0.82 0.02 0  0.84 0.02 0  0.86 0.02 0  0.88 0.02 0  0.9 0.02 0  0.92 0.02 0  0.9399999999999999 0.02 0  0.96 0.02 0  0.98 0.02 0  1 0.02 0  0 0.04 0  0.02 0.04 0  0.04 0.04 0  0.06 0.04 0  0.08 0.04 0  0.1 0.04 0  0.12 0.04 0  0.14 0.04 0  0.16 0.04 0  0.18 0.04 0  0.2 0.04 0  0.22 0.04 0  0.24 0.04 0  0.26 0.04 0  0.28 0.04 0  0.3 0.04 0  0.32 0.04 0  0.34 0.04 0  0.36 0.04 0  0.38 0.04 0  0.4 0.04 0  0.42 0.04 0  0.44 0.04 0  0.46 0.04 0  0.48 0.04 0  0.5 0.04 0  0.52 0.04 0  0.54 0.04 0  0.5600000000000001 0.04 0  0.58 0.04 0  0.6 0.04 0  0.62 0.04 0  0.64 0.04 0  0.66 0.04 0  0.68 0.04 0  0.7 0.04 0  0.72 0.04 0  0.74 0.04 0  0.76 0.04 0  0.78 0.04 0  0.8 0.04 0  0.82 0.04 0  0.84 0.04 0  0.86 0.04 0  0.88 0.04 0  0.9 0.04 0  0.92 0.04 0  0.9399999999999999 0.04 0  0.96 0.04 0  0.98 0.04 0  1 0.04 0  0 0.06 0  0.02 0.06 0  0.04 0.06 0  0.06 0.06 0  0.08 0.06 0  0.1 0.06 0  0.12 0.06 0  0.14 0.06 0  0.16 0.06 0  0.18 0.06 0  0.2 0.06 0  0.22 0.06 0  0.24 0.06 0  0.26 0.06 0  0.28 0.06 0  0.3 0.06 0  0.32 0.06 0  0.34 0.06 0  0.36 0.06 0  0.38 0.06 0  0.4 0.06 0  0.42 0.06 0  0.44 0.06 0  0.46 0.06 0  0.48 0.06 0  0.5 0.06 0  0.52 0.06 0  0.54 0.06 0  0.5600000000000001 0.06 0  0.58 0.06 0  0.6 0.06 0  0.62 0.06 0  0.64 0.06 0  0.66 0.06 0  0.68 0.06 0  0.7 0.06 0  0.72 0.06 0  0.74 0.06 0  0.76 0.06 0  0.78 0.06 0  0.8 0.06 0  0.82 0.06 0  0.84 0.06 0  0.86 0.06 0  0.88 0.06 0  0.9 0.06 0  0.92 0.06 0  0.9399999999999999 0.06 0  0.96 0.06 0  0.98 0.06 0  1 0.06 0  0 0.08 0  0.02 0.08 0  0.04 0.08 0  0.06 0.08 0  0.08 0.08 0  0.1 0.08 0  0.12 0.08 0  0.14 0.08 0  0.16 0.08 0  0.18 0.08 0  0.2 0.08 0  0.22 0.08 0  0.24 0.08 0  0.26 0.08 0  0.28 0.08 0  0.3 0.08 0  0.32 0.08 0  0.34 0.08 0  0.36 0.08 0  0.38 0.08 0  0.4 0.08 0  0.42 0.08 0  0.44 0.08 0  0.46 0.08 0  0.48 0.08 0  0.5 0.08 0  0.52 0.08 0  0.54 0.08 0  0.5600000000000001 0.08 0  0.58 0.08 0  0.6 0.08 0  0.62 0.08 0  0.64 0.08 0  0.66 0.08 0  0.68 0.08 0  0.7 0.08 0  0.72 0.08 0  0.74 0.08 0  0.76 0.08 0  0.78 0.08 0  0.8 0.08 0  0.82 0.08 0  0.84 0.08 0  0.86 0.08 0  0.88 0.08 0  0.9 0.08 0  0.92 0.08 0  0.9399999999999999 0.08 0  0.96 0.08 0  0.98 0.08 0  1 0.08 0  0 0.1 0  0.02 0.1 0  0.04 0.1 0  0.06 0.1 0  0.08 0.1 0  0.1 0.1 0  0.12 0.1 0  0.14 0.1 0  0.16 0.1 0  0.18 0.1 0  0.2 0.1 0  0.22 0.1 0  0.24 0.1 0  0.26 0.1 0  0.28 0.1 0  0.3 0.1 0  0.32 0.1 0  0.34 0.1 0  0.36 0.1 0  0.38 0.1 0  0.4 0.1 0  0.42 0.1 0  0.44 0.1 0  0.46 0.1 0  0.48 0.1 0  0.5 0.1 0  0.52 0.1 0  0.54 0.1 0  0.5600000000000001 0.1 0  0.58 0.1 0  0.6 0.1 0  0.62 0.1 0  0.64 0.1 0  0.66 0.1 0  0.68 0.1 0  0.7 0.1 0  0.72 0.1 0  0.74 0.1 0  0.76 0.1 0  0.78 0.1 0  0.8 0.1 0  0.82 0.1 0  0.84 0.1 0  0.86 0.1 0  0.88 0.1 0  0.9 0.1 0  0.92 0.1 0  0.9399999999999999 0.1 0  0.96 0.1 0  0.98 0.1 0  1 0.1 0  0 0.12 0  0.02 0.12 0  0.04 0.12 0  0.06 0.12 0  0.08 0.12 0  0.1 0.12 0  0.12 0.12 0  0.14 0.12 0  0.16 0.12 0  0.18 0.12 0  0.2 0.12 0  0.22 0.12 0  0.24 0.12 0  0.26 0.12 0  0.28 0.12 0  0.3 0.12 0  0.32 0.12 0  0.34 0.12 0  0.36 0.12 0  0.38 0.12 0  0.4 0.12 0  0.42 0.12 0  0.44 0.12 0  0.46 0.12 0  0.48 0.12 0  0.5 0.12 0  0.52 0.12 0  0.54 0.12 0  0.5600000000000001 0.12 0  0.58 0.12 0  0.6 0.12 0  0.62 0.12 0  0.64 0.12 0  0.66 0.12 0  0.68 0.12 0  0.7 0.12 0  0.72 0.12 0  0.74 0.12 0  0.76 0.12 0  0.78 0.12 0  0.8 0.12 0  0.82 0.12 0  0.84 0.12 0  0.86 0.12 0  0.88 0.12 0  0.9 0.12 0  0.92 0.12 0  0.9399999999999999 0.12 0  0.96 0.12 0  0.98 0.12 0  1 0.12 0  0 0.14 0  0.02 0.14 0  0.04 0.14 0  0.06 0.14 0  0.08 0.14 0  0.1 0.14 0  0.12 0.14 0  0.14 0.14 0  0.16 0.14 0  0.18 0.14 0  0.2 0.14 0  0.22 0.14 0  0.24 0.14 0  0.26 0.14 0  0.28 0.14 0  0.3 0.14 0  0.32 0.14 0  0.34 0.14 0  0.36 0.14 0  0.38 0.14 0  0.4 0.14 0  0.42 0.14 0  0.44 0.14 0  0.46 0.14 0  0.48 0.14 0  0.5 0.14 0  0.52 0.14 0  0.54 0.14 0  0.5600000000000001 0.14 0  0.58 0.14 0  0.6 0.14 0  0.62 0.14 0  0.64 0.14 0  0.66 0.14 0  0.68 0.14 0  0.7 0.14 0  0.72 0.14 0  0.74 0.14 0  0.76 0.14 0  0.78 0.14 0  0.8 0.14 0  0.82 0.14 0  0.84 0.14 0  0.86 0.14 0  0.88 0.14 0  0.9 0.14 0  0.92 0.14 0  0.9399999999999999 0.14 0  0.96 0.14 0  0.98 0.14 0  1 0.14 0  0 0.16 0  0.02 0.16 0  0.04 0.16 0  0.06 0.16 0  0.08 0.16 0  0.1 0.16 0  0.12 0.16 0  0.14 0.16 0  0.16 0.16 0  0.18 0.16 0  0.2 0.16 0  0.22 0.16 0  0.24 0.16 0  0.26 0.16 0  0.28 0.16 0  0.3 0.16 0  0.32 0.16 0  0.34 0.16 0  0.36 0.16 0  0.38 0.16 0  0.4 0.16 0  0.42 0.16 0  0.44 0.16 0  0.46 0.16 0  0.48 0.16 0  0.5 0.16 0  0.52 0.16 0  0.54 0.16 0  0.5600000000000001 0.16 0  0.58 0.16 0  0.6 0.16 0  0.62 0.16 0  0.64 0.16 0  0.66 0.16 0  0.68 0.16 0  0.7 0.16 0  0.72 0.16 0  0.74 0.16 0  0.76 0.16 0  0.78 0.16 0  0.8 0.16 0  0.82 0.16 0  0.84 0.16 0  0.86 0.16 0  0.88 0.16 0  0.9 0.16 0  0.92 0.16 0  0.9399999999999999 0.16 0  0.96 0.16 0  0.98 0.16 0  1 0.16 0  0 0.18 0  0.02 0.18 0  0.04 0.18 0  0.06 0.18 0  0.08 0.18 0  0.1 0.18 0  0.12 0.18 0  0.14 0.18 0  0.16 0.18 0  0.18 0.18 0  0.2 0.18 0  0.22 0.18 0  0.24 0.18 0  0.26 0.18 0  0.28 0.18 0  0.3 0.18 0  0.32 0.18 0  0.34 0.18 0  0.36 0.18 0  0.38 0.18 0  0.4 0.18 0  0.42 0.18 0  0.44 0.18 0  0.46 0.18 0  0.48 0.18 0  0.5 0.18 0  0.52 0.18 0  0.54 0.18 0  0.5600000000000001 0.18 0  0.58 0.18 0  0.6 0.18 0  0.62 0.18 0  0.64 0.18 0  0.66 0.18 0  0.68 0.18 0  0.7 0.18 0  0.72 0.18 0  0.74 0.18 0  0.76 0.18 0  0.78 0.18 0  0.8 0.18 0  0.82 0.18 0  0.84 0.18 0  0.86 0.18 0  0.88 0.18 0  0.9 0.18 0  0.92 0.18 0  0.9399999999999999 0.18 0  0.96 0.18 0  0.98 0.18 0  1 0.18 0  0 0.2 0  0.02 0.2 0  0.04 0.2 0  0.06 0.2 0  0.08 0.2 0  0.1 0.2 0  0.12 0.2 0  0.14 0.2 0  0.16 0.2 0  0.18 0.2 0  0.2 0.2 0  0.22 0.2 0  0.24 0.2 0  0.26 0.2 0  0.28 0.2 0  0.3 0.2 0  0.32 0.2 0  0.34 0.2 0  0.36 0.2 0  0.38 0.2 0  0.4 0.2 0  0.42 0.2 0  0.44 0.2 0  0.46 0.2 0  0.48 0.2 0  0.5 0.2 0  0.52 0.2 0  0.54 0.2 0  0.5600000000000001 0.2 0  0.58 0.2 0  0.6 0.2 0  0.62 0.2 0  0.64 0.2 0  0.66 0.2 0  0.68 0.2 0  0.7 0.2 0  0.72 0.2 0  0.74 0.2 0  0.76 0.2 0  0.78 0.2 0  0.8 0.2 0  0.82 0.2 0  0.84 0.2 0  0.86 0.2 0  0.88 0.2 0  0.9 0.2 0  0.92 0.2 0  0.9399999999999999 0.2 0  0.96 0.2 0  0.98 0.2 0  1 0.2 0  0 0.22 0  0.02 0.22 0  0.04 0.22 0  0.06 0.22 0  0.08 0.22 0  0.1 0.22 0  0.12 0.22 0  0.14 0.22 0  0.16 0.22 0  0.18 0.22 0  0.2 0.22 0  0.22 0.22 0  0.24 0.22 0  0.26 0.22 0  0.28 0.22 0  0.3 0.22 0  0.32 0.22 0  0.34 0.22 0  0.36 0.22 0  0.38 0.22 0  0.4 0.22 0  0.42 0.22 0  0.44 0.22 0  0.46 0.22 0  0.48 0.22 0  0.5 0.22 0  0.52 0.22 0  0.54 0.22 0  0.5600000000000001 0.22 0  0.58 0.22 0  0.6 0.22 0  0.62 0.22 0  0.64 0.22 0  0.66 0.22 0  0.68 0.22 0  0.7 0.22 0  0.72 0.22 0  0.74 0.22 0  0.76 0.22 0  0.78 0.22 0  0.8 0.22 0  0.82 0.22 0  0.84 0.22 0  0.86 0.22 0  0.88 0.22 0  0.9 0.22 0  0.92 0.22 0  0.9399999999999999 0.22 0  0.96 0.22 0  0.98 0.22 0  1 0.22 0  0 0.24 0  0.02 0.24 0  0.04 0.24 0  0.06 0.24 0  0.08 0.24 0  0.1 0.24 0  0.12 0.24 0  0.14 0.24 0  0.16 0.24 0  0.18 0.24 0  0.2 0.24 0  0.22 0.24 0  0.24 0.24 0  0.26 0.24 0  0.28 0.24 0  0.3 0.24 0  0.32 0.24 0  0.34 0.24 0  0.36 0.24 0  0.38 0.24 0  0.4 0.24 0  0.42 0.24 0  0.44 0.24 0  0.46 0.24 0  0.48 0.24 0  0.5 0.24 0  0.52 0.24 0  0.54 0.24 0  0.5600000000000001 0.24 0  0.58 0.24 0  0.6 0.24 0  0.62 0.24 0  0.64 0.24 0  0.66 0.24 0  0.68 0.24 0  0.7 0.24 0  0.72 0.24 0  0.74 0.24 0  0.76 0.24 0  0.78 0.24 0  0.8 0.24 0  0.82 0.24 0  0.84 0.24 0  0.86 0.24 0  0.88 0.24 0  0.9 0.24 0  0.92 0.24 0  0.9399999999999999 0.24 0  0.96 0.24 0  0.98 0.24 0  1 0.24 0  0 0.26 0  0.02 0.26 0  0.04 0.26 0  0.06 0.26 0  0.08 0.26 0  0.1 0.26 0  0.12 0.26 0  0.14 0.26 0  0.16 0.26 0  0.18 0.26 0  0.2 0.26 0  0.22 0.26 0  0.24 0.26 0  0.26 0.26 0  0.28 0.26 0  0.3 0.26 0  0.32 0.26 0  0.34 0.26 0  0.36 0.26 0  0.38 0.26 0  0.4 0.26 0  0.42 0.26 0  0.44 0.26 0  0.46 0.26 0  0.48 0.26 0  0.5 0.26 0  0.52 0.26 0  0.54 0.26 0  0.5600000000000001 0.26 0  0.58 0.26 0  0.6 0.26 0  0.62 0.26 0  0.64 0.26 0  0.66 0.26 0  0.68 0.26 0  0.7 0.26 0  0.72 0.26 0  0.74 0.26 0  0.76 0.26 0  0.78 0.26 0  0.8 0.26 0  0.82 0.26 0  0.84 0.26 0  0.86 0.26 0  0.88 0.26 0  0.9 0.26 0  0.92 0.26 0  0.9399999999999999 0.26 0  0.96 0.26 0  0.98 0.26 0  1 0.26 0  0 0.28 0  0.02 0.28 0  0.04 0.28 0  0.06 0.28 0  0.08 0.28 0  0.1 0.28 0  0.12 0.28 0  0.14 0.28 0  0.16 0.28 0  0.18 0.28 0  0.2 0.28 0  0.22 0.28 0  0.24 0.28 0  0.26 0.28 0  0.28 0.28 0  0.3 0.28 0  0.32 0.28 0  0.34 0.28 0  0.36 0.28 0  0.38 0.28 0  0.4 0.28 0  0.42 0.28 0  0.44 0.28 0  0.46 0.28 0  0.48 0.28 0  0.5 0.28 0  0.52 0.28 0  0.54 0.28 0  0.5600000000000001 0.28 0  0.58 0.28 0  0.6 0.28 0  0.62 0.28 0  0.64 0.28 0  0.66 0.28 0  0.68 0.28 0  0.7 0.28 0  0.72 0.28 0  0.74 0.28 0  0.76 0.28 0  0.78 0.28 0  0.8 0.28 0  0.82 0.28 0  0.84 0.28 0  0.86 0.28
[...]
<PointData  Scalars="f_12"> 
<DataArray  type="Float64"  Name="f_12"  format="ascii">7.0770872135554741e-01  7.0824774143660074e-01  7.0950043199255419e-01  7.1136593279833860e-01  7.1377984599382882e-01  7.1669148654534620e-01  7.2005692697563950e-01  7.2383596798469618e-01  7.2799054669665753e-01  7.3248381388571593e-01  7.3727958106670144e-01  7.4234200146438989e-01  7.4763541509622211e-01  7.5312431738492247e-01  7.5877342376701373e-01  7.6454780820132517e-01  7.7041309532182500e-01  7.7633568641448081e-01  7.8228299978703630e-01  7.8822370732716229e-01  7.9412795162607119e-01  7.9996753211710780e-01  8.0571605388639445e-01  8.1134903830669325e-01  8.1684399942840835e-01  8.2218049345279998e-01  8.2734015024920526e-01  8.3230669544436853e-01  8.3706596903749297e-01  8.4160594243175013e-01  8.4591673139370172e-01  8.4999059879521754e-01  8.5382193878041657e-01  8.5740723370613070e-01  8.6074497687098583e-01  8.6383555716328997e-01  8.6668110550206112e-01  8.6928530653292047e-01  8.7165318189670560e-01  8.7379085318724392e-01  8.7570529336576619e-01  8.7740407500919471e-01  8.7889512257170122e-01  8.8018647411559281e-01  8.8128605597828125e-01  8.8220147176336916e-01  8.8293980488853863e-01  8.8350743044085722e-01  8.8390983375368937e-01  8.8415132234861893e-01  8.8423445080492069e-01  7.0711661766003864e-01  7.0766160729206740e-01  7.0884417081352002e-01  7.1061633772885846e-01  7.1292381734232713e-01  7.1571970964497245e-01  7.1896202073806770e-01  7.2261178299364059e-01  7.2663187399799567e-01  7.3098626664172484e-01  7.3563955918472623e-01  7.4055670001323315e-01  7.4570285734593000e-01  7.5104340198347597e-01  7.5654397948308827e-01  7.6217065132474571e-01  7.6789008528484060e-01  7.7366977499926581e-01  7.7947826874871162e-01  7.8528538865853748e-01  7.9106242429202711e-01  7.9678228924886396e-01  8.0241963553799278e-01  8.0795092704790206e-01  8.1335447893990243e-01  8.1861047349014004e-01  8.2370096469914111e-01  8.2860988339098196e-01  8.3332305099335158e-01  8.3782820456147611e-01  8.4211502971227303e-01  8.4617519321434020e-01  8.5000236372511162e-01  8.5359220834189997e-01  8.5694235446643052e-01  8.6005231027493079e-01  8.6292334172014562e-01  8.6555830848907478e-01  8.6796146501767690e-01  8.7013823511508781e-01  8.7209496984526846e-01  8.7383869817222226e-01  8.7537687878249049e-01  8.7671715981945564e-01  8.7786715137813720e-01  8.7883421391817229e-01  8.7962526475149261e-01  8.8024660483399608e-01  8.8070378008704819e-01  8.8100139956860291e-01  8.8114209022048784e-01  7.0574353405843504e-01  7.0636891576765914e-01  7.0756049891028117e-01  7.0930235699100441e-01  7.1155522739881338e-01  7.1427974054602650e-01  7.1743817895766993e-01  7.2099426837179703e-01  7.2491276247171266e-01  7.2915906399823849e-01  7.3369894859676232e-01  7.3849839905544024e-01  7.4352354217325667e-01  7.4874067657306620e-01  7.5411637785568997e-01  7.5961766535381270e-01  7.6521221227800396e-01  7.7086857881354598e-01  7.7655644652314304e-01  7.8224683296700737e-01  7.8791226819726057e-01  7.9352692027029548e-01  7.9906666532999449e-01  8.0450910732537262e-01  8.0983355962295300e-01  8.1502100477678641e-01  8.2005405131869658e-01  8.2491690659061456e-01  8.2959537919907078e-01  8.3407691495871306e-01  8.3835066124159485e-01  8.4240754753574798e-01  8.4624036441368566e-01  8.4984382113745693e-01  8.5321456479366165e-01  8.5635114957746272e-01  8.5925395155029693e-01  8.6192503054755476e-01  8.6436794612600876e-01  8.6658753796413091e-01  8.6858968278298521e-01  8.7038103985354798e-01  8.7196879594649201e-01  8.7336041871643588e-01  8.7456342557260514e-01  8.7558517367069766e-01  8.7643267631528499e-01  8.7711245122559733e-01  8.7763041643793205e-01  8.7799157888025692e-01  8.7819659373412973e-01  7.0370322158087706e-01  7.0443137818550050e-01  7.0567200538471964e-01  7.0742542380637574e-01  7.0966247069656241e-01  7.1235076578358947e-01  7.1545735962020307e-01  7.1894929161248622e-01  7.2279371449453966e-01  7.2695784982100919e-01  7.3140891589668078e-01  7.3611409103861036e-01  7.4104053782657031e-01  7.4615549600068809e-01  7.5142644119736912e-01  7.5682129907475670e-01  7.6230869803615009e-01  7.6785823854250490e-01  7.7344075374317656e-01  7.7902853558735707e-01  7.8459550276573209e-01  7.9011729271504050e-01  7.9557127225906854e-01  8.0093647891866804e-01  8.0619351512449233e-01  8.1132441919173881e-01  8.1631254152391053e-01  8.2114246024949522e-01  8.2579996212002893e-01  8.3027209283001768e-01  8.3454726826763348e-01  8.3861542949467005e-01  8.4246821255101456e-01  8.4609909933154592e-01  8.4950352103640903e-01  8.5267889578848477e-01  8.5562459235193422e-01  8.5834182121888025e-01  8.6083346214057244e-01  8.6310384235698434e-01  8.6515848205321810e-01  8.6700382341720916e-01  8.6864695781722134e-01  8.7009536287731004e-01  8.7135665831088049e-01  8.7243838668913576e-01  8.7334782248987475e-01  8.7409180661367081e-01  8.7467660519978940e-01  8.7510737808034622e-01  8.7538251845695803e-01  7.0106085858419631e-01  7.0190612191920243e-01  7.0322068743783295e-01  7.0501527948842690e-01  7.0726693499665427e-01  7.0994852672119779e-01  7.1303131423134192e-01  7.1648558945966101e-01  7.2028101171265901e-01  7.2438675340521042e-01  7.2877157387558589e-01  7.3340389171766973e-01  7.3825189459907259e-01  7.4328370561997525e-01  7.4846761118169380e-01  7.5377234379981395e-01  7.5916740326894716e-01  7.6462339012440916e-01  7.7011231945215342e-01  7.7560788100222600e-01  7.8108561306325919e-01  7.8652295985913223e-01  7.9189919776210782e-01  7.9719525814484415e-01  8.0239349325089360e-01  8.0747741136957030e-01  8.1243141712075362e-01  8.1724062381963747e-01  8.2189080099766776e-01  8.2636844430988066e-01  8.3066095241860993e-01  8.3475689775785800e-01  8.3864633859209248e-01  8.4232111255360853e-01  8.4577506375707723e-01  8.4900417650614357e-01  8.5200660355474522e-01  8.5478258997851320e-01  8.5733430638202757e-01  8.5966561270716946e-01  8.6178177662980648e-01  8.6368916966391984e-01  8.6539496069841026e-01  8.6690682210605507e-01  8.6823265873996125e-01  8.6938036536798091e-01  8.7035761265029987e-01  8.7117165255270601e-01  8.7182914224729158e-01  8.7233546396886152e-01  8.7268694685732517e-01  6.9786273778262686e-01  6.9883686805474599e-01  7.0024368546294569e-01  7.0210182783243114e-01  7.0439233913336718e-01  7.0709188795685229e-01  7.1017514963299178e-01  7.1361529469428409e-01  7.1738433091472975e-01  7.2145331072772001e-01  7.2579247843264794e-01  7.3037141440506181e-01  7.3515921537826456e-01  7.4012473440030935e-01  7.4523689013906047e-01  7.5046504093778199e-01  7.5577940629198914e-01  7.6115150182961067e-01  7.6655454600985251e-01  7.7196378304403412e-01  7.7735669209426883e-01  7.8271303106677026e-01  7.8801462031462488e-01  7.9324498290640488e-01  7.9838892443756337e-01  8.0343208436906322e-01  8.0836043923956247e-01  8.1315989998229388e-01  8.1781624443885825e-01  8.2231521094297455e-01  8.2664275582472480e-01  8.3078550451163291e-01  8.3473129727976847e-01  8.3846970103702412e-01  8.4199241488853838e-01  8.4529353899292270e-01  8.4836968883511321e-01  8.5121995368753312e-01  8.5384572394738412e-01  8.5625042065042101e-01  8.5843916315620072e-01  8.6041840859794871e-01  8.6219559017834224e-01  8.6377877370491007e-01  8.6517634431881041e-01  8.6639672849472760e-01  8.6744814956020933e-01  8.6833840613027502e-01  8.6907468193656368e-01  8.6966275927632364e-01  8.7009712733837441e-01  6.9414543784398508e-01  6.9525920890241610e-01  6.9677330004603821e-01  6.9871305561909036e-01  7.0106234979808124e-01  7.0380066975702116e-01  7.0690542191636052e-01  7.1035221932062831e-01  7.1411514225985695e-01  7.1816692681980743e-01  7.2247912647338164e-01  7.2702229026944809e-01  7.3176619367000584e-01  7.3668014805306781e-01  7.4173340285845246e-01  7.4689563708953821e-01  7.5213752308819837e-01  7.5743130993880625e-01  7.6275140771050087e-01  7.6807477660167855e-01  7.7338122697107126e-01  7.7865358599204859e-01  7.8387718493240166e-01  7.8903916308633515e-01  7.9412778846525856e-01  7.9913190388502908e-01  8.0403996910913433e-01  8.0883902295341115e-01  8.1351489315037051e-01  8.1805233097675389e-01  8.2243517393208054e-01  8.2664722405701618e-01  8.3067312420501593e-01  8.3449925400001890e-01  8.3811434853267974e-01  8.4150996835275604e-01  8.4468073258735199e-01  8.4762430376375064e-01  8.5034118770710876e-01  8.5283439581029519e-01  8.5510902554371626e-01  8.5717180942463655e-01  8.5903066933452743e-01  8.6069430067867891e-01  8.6217180020857598e-01  8.6347234229425962e-01  8.6460490077442731e-01  8.6557800559278131e-01  8.6639955135046809e-01  8.6707591739953471e-01  8.6759997291010016e-01  6.8993994352514521e-01  6.9120371791983237e-01  6.9283827773981799e-01  6.9487502828540348e-01  6.9730005359470626e-01  7.0009505615471923e-01  7.0323967165473622e-01  7.0671157029692278e-01  7.1048660555225973e-01  7.1453893919195399e-01  7.1884117461520003e-01  7.2336453539939882e-01  7.2807912517977202e-01  7.3295429995731798e-01  7.3795917461587834e-01  7.4306325844665799e-01  7.4823723662203279e-01  7.5345372613436123e-01  7.5868828065821892e-01  7.6391963064664026e-01  7.6913022277251175e-01  7.7430740537962750e-01  7.7944132832279689e-01  7.8452442407732936e-01  7.8954890437133374e-01  7.9450933688241954e-01  7.9939825441580525e-01  8.0420413956895087e-01  8.0891231101098715e-01  8.1350730967037443e-01  8.1796965295858060e-01  8.2227837460502984e-01  8.2641374786616439e-01  8.3035758347966482e-01  8.3409446013045163e-01  8.3761247605219091e-01  8.4090363482274877e-01  8.4396381881367122e-01  8.4679253272873889e-01  8.4939244000074665e-01  8.5176879914144032e-01  8.5392887465071710e-01  8.5588136950372418e-01  8.5763590889346963e-01  8.5920259056840409e-01  8.6059160539477730e-01  8.6181292304088031e-01  8.6287603014073966e-01  8.6378974287296395e-01  8.6456123766336457e-01  8.6518199063482104e-01  6.8527395581929229e-01  6.8669790955629195e-01  6.8846502695282386e-01  6.9061240513608702e-01  6.9312803300041514e-01  6.9599548405179468e-01  6.9919629101761127e-01  7.0270988340610385e-01  7.0651361450473160e-01  7.1058279549560255e-01  7.1489076674011021e-01  7.1940904420520557e-01  7.2410758337644943e-01  7.2895520106530121e-01  7.3392019723549951e-01  7.3897117116721289e-01  7.4407813620036700e-01  7.4921321816966846e-01  7.5435328771615195e-01  7.5947885473790766e-01  7.6457455297254950e-01  7.6963884466909804e-01  7.7467566237183461e-01  7.7968102500667646e-01  7.8464662231467863e-01  7.8956325586800502e-01  7.9442253310926991e-01  7.9921818978711778e-01  8.0394478598781061e-01  8.0859726620499950e-01  8.1316249548035957e-01  8.1760361257646452e-01  8.2188471362275772e-01  8.2598464618371625e-01  8.2988041141357560e-01  8.3355575123758952e-01  8.3699926006854219e-01  8.4020460559045629e-01  8.4317021354743693e-01  8.4589854743239357e-01  8.4839531757280351e-01  8.5066869030900327e-01  8.5272854946470222e-01  8.5458584521304537e-01  8.5625204614012140e-01  8.5773869431003369e-01  8.5905705285363676e-01  8.6021782827764381e-01  8.6123099022244398e-01  8.6210471734560279e-01  8.6282933502723047e-01  6.8017336676921503e-01  6.8176756056270316e-01  6.8367859141027787e-01  6.8594903105888927e-01  6.8856866127747163e-01  6.9152276310692107e-01  6.9479457602715067e-01  6.9836508666722685e-01  7.0221292678698255e-01  7.0631429275973145e-01  7.1064292071651336e-01  7.1517016256491783e-01  7.1986521842079487e-01  7.2469559538691319e-01  7.2962782124081516e-01  7.3462839031497340e-01  7.3966594565074306e-01  7.4471070566378916e-01  7.4974223751269753e-01  7.5477139532613402e-01  7.5980090064320560e-01  7.6481871782114830e-01  7.6981512284252140e-01  7.7478222460923252e-01  7.7971166549904136e-01  7.8459570967978032e-01  7.8942721881050348e-01  7.9420005126772764e-01  7.9890866244101633e-01  8.0354802956339766e-01  8.0811402646986796e-01  8.1260177195517658e-01  8.1701158069696744e-01  8.2131155245469900e-01  8.2541295384793811e-01  8.2928998771974716e-01  8.3292560265573323e-01  8.3631105122971972e-01  8.3944375255370118e-01  8.4232628585215863e-01  8.4496528560109341e-01  8.4737036755079442e-01  8.4955315482207383e-01  8.5152645017119433e-01  8.5330356828605947e-01  8.5489781792409136e-01  8.5632211240271872e-01  8.5758868105156105e-01  8.5870890140333234e-01  8.5969216913559743e-01  8.6052792007957724e-01  6.7466327908946488e-01  6.7643764836910036e-01  6.7850340626048766e-01  6.8090847445232527e-01  6.8364444652303591e-01  6.8669828283640189e-01  6.9005486124951365e-01  6.9369662244363206e-01  6.9760332711119144e-01  7.0175183288517140e-01  7.0611593158893393e-01  7.1066630293482913e-01  7.1537066968692520e-01  7.2019426015120080e-01  7.2510034687314329e-01  7.3005251161217100e-01  7.3501588104821602e-01  7.3999222385742214e-01  7.4498648585456062e-01  7.4998691855255450e-01  7.5498515215871009e-01  7.5997174338313822e-01  7.6493807934926661e-01  7.6987631638891740e-01  7.7477902027690626e-01  7.7963927145723178e-01  7.8445073023965739e-01  7.8920771102517806e-01  7.9390513225090575e-01  7.9853848392686688e-01  8.0310382824097948e-01  8.0759790126905495e-01  8.1201802161040371e-01  8.1636226553160185e-01  8.2062983172068626e-01  8.2476136609953976e-01  8.2863829209377005e-01  8.3224647889201842e-01  8.3558245071919168e-01  8.3864948959720587e-01  8.4145591085701565e-01  8.4401359583665903e-01  8.4633669117612231e-01  8.4844055670394691e-01  8.5034096129659575e-01  8.5205349208517456e-01  8.5359313592307295e-01  8.5497399099649252e-01  8.5620912194534038e-01  8.5730936870882546e-01  8.5826355784115815e-01  6.6876874227651284e-01  6.7073303612861201e-01  6.7296387563956162e-01  6.7551447004559861e-01  6.7837834328800284e-01  6.8154421882765914e-01  6.8499865816096750e-01  6.8872556072850222e-01  6.9270576232854741e-01  6.9691663430580908e-01  7.0133172987584591e-01  7.0592054321852438e-01  7.1064846730072639e-01  7.1547720731640652e-01  7.2036541632804019e-01  7.2527991703198247e-01  7.3022380932408415e-01  7.3518970586811416e-01  7.4016861950754320e-01  7.4515150365312410e-01  7.5013000500585925e-01  7.5509602661318898e-01  7.6004192162391826e-01  7.6496056250589739e-01  7.6984528779154693e-01  7.7468992449675600e-01  7.7948881491803468e-01  7.8423684504116509e-01  7.8892944418996391e-01  7.9356257828482679e-01  7.9813275580995724e-01  8.0263705019383258e-01  8.0707309726295451e-01  8.1143902578432836e-01  8.1573340066545741e-01  8.1995516501629206e-01  8.2409147464093646e-01  8.2797423966619288e-01  8.3155646430821628e-01  8.3484323612603273e-01  8.3784573535531426e-01  8.4057932993677076e-01  8.4306178355366157e-01  8.4531194274017829e-01  8.4734879816451358e-01  8.4919083656430450e-01  8.5085561378184127e-01  8.5235948745564294e-01  8.5371751345905988e-01  8.5494221561383699e-01  8.5602210809926738e-01  6.6251529019700206e-01  6.6467897305655677e-01  6.6708480115088131e-01  6.6979125475136791e-01  6.7279399104825077e-01  6.7608368308187994e-01  6.7964873706458073e-01  6.8347464077573139e-01  6.8754338048794772e-01  6.9183282251200362e-01  6.9631609614133794e-01  7.0096102846919539e-01  7.0572982358514191e-01  7.1057914460002403e-01  7.1547146788881011e-01  7.2039706239170931e-01  7.2534719271291237e-01  7.3031398082626864e-01  7.3528919865391507e-01  7.4026510535822632e-01  7.4523425001016297e-01  7.5018952709499120e-01  7.5512420577102579e-01  7.6003197008406387e-01  7.6490692807330052e-01  7.6974362556949649e-01  7.7453706493604924e-01  7.7928272246805153e-01  7.8397655699315305e-01  7.8861501381776034e-01  7.9319503009610814e-01  7.9771403975172706e-01  8.0216996714924937e-01  8.0656120881848237e-01  8.1088661191350198e-01  8.1514552221207237e-01  8.1933777804399466e-01  8.2345910789707921e-01  8.2733841536970842e-01  8.3088518822513091e-01  8.3411569649873418e-01  8.3705061952158077e-01  8.3971282227170929e-01  8.4212583417991360e-01  8.4431281469614960e-01  8.4629588790368193e-01  8.4809574605089588e-01  8.4973143811251572e-01  8.5122033624203697e-01  8.5257689642734713e-01  8.5378962905270972e-01  6.5592932528328662e-01  6.5830144835123838e-01  6.6089168112384644e-01  6.6376379435485133e-01  6.6691585828862310e-01  6.7034078339751169e-01  6.7402910705965424e-01  6.7796818505650736e-01  6.8214140549693847e-01  6.8652730256932748e-01  6.9109853390392895e-01  6.9582101153666753e-01  7.0065347767925068e-01  7.0554551826972833e-01  7.1047049671066986e-01  7.1542055725110720e-01  7.2038835956078018e-01  7.2536673133800600e-01  7.3034871786096978e-01  7.3532761302886296e-01  7.4029696186379657e-01  7.4525060418295130e-01  7.5018269895115997e-01  7.5508775099402059e-01  7.5996063101325440e-01  7.6479659294097180e-01  7.6959129080820499e-01  7.7434079370556108e-01  7.7904159668521111e-01  7.8369062826155089e-01  7.8828525578476594e-01  7.9282328770059740e-01  7.9730297013730267e-01  8.0172297849558605e-01  8.0608241055563035e-01  8.1038078375706479e-01  8.1461800539827522e-01  8.1879452982590639e-01  8.2290569627689802e-01  8.2675732420019976e-01  8.3025041115782494e-01  8.3341356624174745e-01  8.3627667823794882e-01  8.3886944144211317e-01  8.4122031653187190e-01  8.4335591434653323e-01  8.4530069308785172e-01  8.4707685533149590e-01  8.4870442564444559e-01  8.5020004105753511e-01  8.5155252082895139e-01  6.4903837542448084e-01  6.5162742202848178e-01  6.5441089501157657e-01  6.5745790340911947e-01  6.6076928247614752e-01  6.6434057083071629e-01  6.6816486134142461e-01  6.7223183711172818e-01  6.7652676994979910e-01  6.8102930784875415e-01  6.8571203057470442e-01  6.9053895709871993e-01  6.9545401220106118e-01  7.0040003722311617e-01  7.0536887522445202e-01  7.1035416736791945e-01  7.1534975706924231e-01  7.2034964176793403e-01  7.2534796658553113e-01  7.3033905479061700e-01  7.3531743626037083e-01  7.4027787747109597e-01  7.4521540750789195e-01  7.5012534293893651e-01  7.5500330954360528e-01  7.5984526150596710e-01  7.6464749865137671e-01  7.6940668141275836e-01  7.7411984291415847e-01  7.7878439811366218e-01  7.8339815010459357e-01  7.8795929314992907e-01  7.9246641184468525e-01  7.9691847677446515e-01  8.0131483778920432e-01  8.0565521300430398e-01  8.0993966726638267e-01  8.1416856413656491e-01  8.1834250721892532e-01  8.2244774424297951e-01  8.2623955599657684e-01  8.2965836903211365e-01  8.3274345030204933e-01  8.3553249758840364e-01  8.3806057289773106e-01  8.4035971211112681e-01  8.4245880683830554e-01  8.4438368442991785e-01  8.4615735189128760e-01  8.4779886374643887e-01  8.4929765452837591e-01  6.4187124097746573e-01  6.4468494939781340e-01  6.4766978564924893e-01  6.5090026509262511e-01  6.5438040601540304e-01  6.5810886845447103e-01  6.6208187366369475e-01  6.6629210350790247e-01  6.7072748355926415e-01  6.7536961946966956e-01  6.8019131789955523e-01  6.8514658411411944e-01  6.9013884920254442e-01  6.9514883269163552e-01  7.0017134245247081e-01  7.0520140402185694e-01  7.1023409536980087e-01  7.1526453848292049e-01  7.2028794962785281e-01  7.2529966936688561e-01  7.3029519165857315e-01  7.3527019192664811e-01  7.4022055346918669e-01  7.4514239219429701e-01  7.5003207907813119e-01  7.5488626036612128e-01  7.5970187559588298e-01  7.6447617330872764e-01  7.6920672420926062e-01  7.7389143162255603e-01  7.7852853912723352e-01  7.8311663513861840e-01  7.8765465421570524e-01  7.9214187505048539e-01  7.9657791492612939e-01  8.0096271925688056e-01  8.0529654333708822e-01  8.0957992468530249e-01  8.1381369745928822e-01  8.1799828567419275e-01  8.2207996317424659e-01  8.2578035428222396e-01  8.2910718402159300e-01  8.3210774898596485e-01  8.3482515947637781e-01  8.3729785573229309e-01  8.3955982332830714e-01  8.4164095980432796e-01  8.4356755301779374e-01  8.4536128084312046e-01  8.4701248019254671e-01  6.3445804622396196e-01  6.3750321403880172e-01  6.4069665332926029e-01  6.4411836329198013e-01  6.4777601836728327e-01  6.5167198841334639e-01  6.5580634480274902e-01  6.6017565751582008e-01  6.6477152713873677e-01  6.6957844722486837e-01  6.7457124851853423e-01  6.7963838238626595e-01  6.8471496660483444e-01  6.8979760753602537e