<?xml version="1.0"?>
<VTKFile type="UnstructuredGrid"  version="0.1"  >
<UnstructuredGrid>
<Piece  NumberOfPoints="2601" NumberOfCells="5000">
<Points>
<DataArray  type="Float64"  NumberOfComponents="3"  format="ascii">0 0 0  0.02 0 0  0.04 0 0  0.06 0 0  0.08 0 0  0.1 0 0  0.12 0 0  0.14 0 0  0.16 0 0  0.18 0 0  0.2 0 0  0.22 0 0  0.24 0 0  0.26 0 0  0.28 0 0  0.3 0 0  0.32 0 0  0.34 0 0  0.36 0 0  0.38 0 0  0.4 0 0  0.42 0 0  0.44 0 0  0.46 0 0  0.48 0 0  0.5 0 0  0.52 0 0  0.54 0 0  0.5600000000000001 0 0  0.58 0 0  0.6 0 0  0.62 0 0  0.64 0 0  0.66 0 0  0.68 0 0  0.7 0 0  0.72 0 0  0.74 0 0  0.76 0 0  0.78 0 0  0.8 0 0  0.82 0 0  0.84 0 0  0.86 0 0  0.88 0 0  0.9 0 0  0.92 0 0  0.9399999999999999 0 0  0.96 0 0  0.98 0 0  1 0 0  0 0.02 0  0.02 0.02 0  0.04 0.02 0  0.06 0.02 0  0.08 0.02 0  0.1 0.02 0  0.12 0.02 0  0.14 0.02 0  0.16 0.02 0  0.18 0.02 0  0.2 0.02 0  0.22 0.02 0  0.24 0.02 0  0.26 0.02 0  0.28 0.02 0  0.3 0.02 0  0.32 0.02 0  0.34 0.02 0  0.36 0.02 0  0.38 0.02 0  0.4 0.02 0  0.42 0.02 0  0.44 0.02 0  0.46 0.02 0  0.48 0.02 0  0.5 0.02 0  0.52 0.02 0  0.54 0.02 0  0.5600000000000001 0.02 0  0.58 0.02 0  0.6 0.02 0  0.62 0.02 0  0.64 0.02 0  0.66 0.02 0  0.68 0.02 0  0.7 0.02 0  0.72 0.02 0  0.74 0.02 0  0.76 0.02 0  0.78 0.02 0  0.8 0.02 0  0.82 0.02 0  0.84 0.02 0  0.86 0.02 0  0.88 0.02 0  0.9 0.02 0  0.92 0.02 0  0.9399999999999999 0.02 0  0.96 0.02 0  0.98 0.02 0  1 0.02 0  0 0.04 0  0.02 0.04 0  0.04 0.04 0  0.06 0.04 0  0.08 0.04 0  0.1 0.04 0  0.12 0.04 0  0.14 0.04 0  0.16 0.04 0  0.18 0.04 0  0.2 0.04 0  0.22 0.04 0  0.24 0.04 0  0.26 0.04 0  0.28 0.04 0  0.3 0.04 0  0.32 0.04 0  0.34 0.04 0  0.36 0.04 0  0.38 0.04 0  0.4 0.04 0  0.42 0.04 0  0.44 0.04 0  0.46 0.04 0  0.48 0.04 0  0.5 0.04 0  0.52 0.04 0  0.54 0.04 0  0.5600000000000001 0.04 0  0.58 0.04 0  0.6 0.04 0  0.62 0.04 0  0.64 0.04 0  0.66 0.04 0  0.68 0.04 0  0.7 0.04 0  0.72 0.04 0  0.74 0.04 0  0.76 0.04 0  0.78 0.04 0  0.8 0.04 0  0.82 0.04 0  0.84 0.04 0  0.86 0.04 0  0.88 0.04 0  0.9 0.04 0  0.92 0.04 0  0.9399999999999999 0.04 0  0.96 0.04 0  0.98 0.04 0  1 0.04 0  0 0.06 0  0.02 0.06 0  0.04 0.06 0  0.06 0.06 0  0.08 0.06 0  0.1 0.06 0  0.12 0.06 0  0.14 0.06 0  0.16 0.06 0  0.18 0.06 0  0.2 0.06 0  0.22 0.06 0  0.24 0.06 0  0.26 0.06 0  0.28 0.06 0  0.3 0.06 0  0.32 0.06 0  0.34 0.06 0  0.36 0.06 0  0.38 0.06 0  0.4 0.06 0  0.42 0.06 0  0.44 0.06 0  0.46 0.06 0  0.48 0.06 0  0.5 0.06 0  0.52 0.06 0  0.54 0.06 0  0.5600000000000001 0.06 0  0.58 0.06 0  0.6 0.06 0  0.62 0.06 0  0.64 0.06 0  0.66 0.06 0  0.68 0.06 0  0.7 0.06 0  0.72 0.06 0  0.74 0.06 0  0.76 0.06 0  0.78 0.06 0  0.8 0.06 0  0.82 0.06 0  0.84 0.06 0  0.86 0.06 0  0.88 0.06 0  0.9 0.06 0  0.92 0.06 0  0.9399999999999999 0.06 0  0.96 0.06 0  0.98 0.06 0  1 0.06 0  0 0.08 0  0.02 0.08 0  0.04 0.08 0  0.06 0.08 0  0.08 0.08 0  0.1 0.08 0  0.12 0.08 0  0.14 0.08 0  0.16 0.08 0  0.18 0.08 0  0.2 0.08 0  0.22 0.08 0  0.24 0.08 0  0.26 0.08 0  0.28 0.08 0  0.3 0.08 0  0.32 0.08 0  0.34 0.08 0  0.36 0.08 0  0.38 0.08 0  0.4 0.08 0  0.42 0.08 0  0.44 0.08 0  0.46 0.08 0  0.48 0.08 0  0.5 0.08 0  0.52 0.08 0  0.54 0.08 0  0.5600000000000001 0.08 0  0.58 0.08 0  0.6 0.08 0  0.62 0.08 0  0.64 0.08 0  0.66 0.08 0  0.68 0.08 0  0.7 0.08 0  0.72 0.08 0  0.74 0.08 0  0.76 0.08 0  0.78 0.08 0  0.8 0.08 0  0.82 0.08 0  0.84 0.08 0  0.86 0.08 0  0.88 0.08 0  0.9 0.08 0  0.92 0.08 0  0.9399999999999999 0.08 0  0.96 0.08 0  0.98 0.08 0  1 0.08 0  0 0.1 0  0.02 0.1 0  0.04 0.1 0  0.06 0.1 0  0.08 0.1 0  0.1 0.1 0  0.12 0.1 0  0.14 0.1 0  0.16 0.1 0  0.18 0.1 0  0.2 0.1 0  0.22 0.1 0  0.24 0.1 0  0.26 0.1 0  0.28 0.1 0  0.3 0.1 0  0.32 0.1 0  0.34 0.1 0  0.36 0.1 0  0.38 0.1 0  0.4 0.1 0  0.42 0.1 0  0.44 0.1 0  0.46 0.1 0  0.48 0.1 0  0.5 0.1 0  0.52 0.1 0  0.54 0.1 0  0.5600000000000001 0.1 0  0.58 0.1 0  0.6 0.1 0  0.62 0.1 0  0.64 0.1 0  0.66 0.1 0  0.68 0.1 0  0.7 0.1 0  0.72 0.1 0  0.74 0.1 0  0.76 0.1 0  0.78 0.1 0  0.8 0.1 0  0.82 0.1 0  0.84 0.1 0  0.86 0.1 0  0.88 0.1 0  0.9 0.1 0  0.92 0.1 0  0.9399999999999999 0.1 0  0.96 0.1 0  0.98 0.1 0  1 0.1 0  0 0.12 0  0.02 0.12 0  0.04 0.12 0  0.06 0.12 0  0.08 0.12 0  0.1 0.12 0  0.12 0.12 0  0.14 0.12 0  0.16 0.12 0  0.18 0.12 0  0.2 0.12 0  0.22 0.12 0  0.24 0.12 0  0.26 0.12 0  0.28 0.12 0  0.3 0.12 0  0.32 0.12 0  0.34 0.12 0  0.36 0.12 0  0.38 0.12 0  0.4 0.12 0  0.42 0.12 0  0.44 0.12 0  0.46 0.12 0  0.48 0.12 0  0.5 0.12 0  0.52 0.12 0  0.54 0.12 0  0.5600000000000001 0.12 0  0.58 0.12 0  0.6 0.12 0  0.62 0.12 0  0.64 0.12 0  0.66 0.12 0  0.68 0.12 0  0.7 0.12 0  0.72 0.12 0  0.74 0.12 0  0.76 0.12 0  0.78 0.12 0  0.8 0.12 0  0.82 0.12 0  0.84 0.12 0  0.86 0.12 0  0.88 0.12 0  0.9 0.12 0  0.92 0.12 0  0.9399999999999999 0.12 0  0.96 0.12 0  0.98 0.12 0  1 0.12 0  0 0.14 0  0.02 0.14 0  0.04 0.14 0  0.06 0.14 0  0.08 0.14 0  0.1 0.14 0  0.12 0.14 0  0.14 0.14 0  0.16 0.14 0  0.18 0.14 0  0.2 0.14 0  0.22 0.14 0  0.24 0.14 0  0.26 0.14 0  0.28 0.14 0  0.3 0.14 0  0.32 0.14 0  0.34 0.14 0  0.36 0.14 0  0.38 0.14 0  0.4 0.14 0  0.42 0.14 0  0.44 0.14 0  0.46 0.14 0  0.48 0.14 0  0.5 0.14 0  0.52 0.14 0  0.54 0.14 0  0.5600000000000001 0.14 0  0.58 0.14 0  0.6 0.14 0  0.62 0.14 0  0.64 0.14 0  0.66 0.14 0  0.68 0.14 0  0.7 0.14 0  0.72 0.14 0  0.74 0.14 0  0.76 0.14 0  0.78 0.14 0  0.8 0.14 0  0.82 0.14 0  0.84 0.14 0  0.86 0.14 0  0.88 0.14 0  0.9 0.14 0  0.92 0.14 0  0.9399999999999999 0.14 0  0.96 0.14 0  0.98 0.14 0  1 0.14 0  0 0.16 0  0.02 0.16 0  0.04 0.16 0  0.06 0.16 0  0.08 0.16 0  0.1 0.16 0  0.12 0.16 0  0.14 0.16 0  0.16 0.16 0  0.18 0.16 0  0.2 0.16 0  0.22 0.16 0  0.24 0.16 0  0.26 0.16 0  0.28 0.16 0  0.3 0.16 0  0.32 0.16 0  0.34 0.16 0  0.36 0.16 0  0.38 0.16 0  0.4 0.16 0  0.42 0.16 0  0.44 0.16 0  0.46 0.16 0  0.48 0.16 0  0.5 0.16 0  0.52 0.16 0  0.54 0.16 0  0.5600000000000001 0.16 0  0.58 0.16 0  0.6 0.16 0  0.62 0.16 0  0.64 0.16 0  0.66 0.16 0  0.68 0.16 0  0.7 0.16 0  0.72 0.16 0  0.74 0.16 0  0.76 0.16 0  0.78 0.16 0  0.8 0.16 0  0.82 0.16 0  0.84 0.16 0  0.86 0.16 0  0.88 0.16 0  0.9 0.16 0  0.92 0.16 0  0.9399999999999999 0.16 0  0.96 0.16 0  0.98 0.16 0  1 0.16 0  0 0.18 0  0.02 0.18 0  0.04 0.18 0  0.06 0.18 0  0.08 0.18 0  0.1 0.18 0  0.12 0.18 0  0.14 0.18 0  0.16 0.18 0  0.18 0.18 0  0.2 0.18 0  0.22 0.18 0  0.24 0.18 0  0.26 0.18 0  0.28 0.18 0  0.3 0.18 0  0.32 0.18 0  0.34 0.18 0  0.36 0.18 0  0.38 0.18 0  0.4 0.18 0  0.42 0.18 0  0.44 0.18 0  0.46 0.18 0  0.48 0.18 0  0.5 0.18 0  0.52 0.18 0  0.54 0.18 0  0.5600000000000001 0.18 0  0.58 0.18 0  0.6 0.18 0  0.62 0.18 0  0.64 0.18 0  0.66 0.18 0  0.68 0.18 0  0.7 0.18 0  0.72 0.18 0  0.74 0.18 0  0.76 0.18 0  0.78 0.18 0  0.8 0.18 0  0.82 0.18 0  0.84 0.18 0  0.86 0.18 0  0.88 0.18 0  0.9 0.18 0  0.92 0.18 0  0.9399999999999999 0.18 0  0.96 0.18 0  0.98 0.18 0  1 0.18 0  0 0.2 0  0.02 0.2 0  0.04 0.2 0  0.06 0.2 0  0.08 0.2 0  0.1 0.2 0  0.12 0.2 0  0.14 0.2 0  0.16 0.2 0  0.18 0.2 0  0.2 0.2 0  0.22 0.2 0  0.24 0.2 0  0.26 0.2 0  0.28 0.2 0  0.3 0.2 0  0.32 0.2 0  0.34 0.2 0  0.36 0.2 0  0.38 0.2 0  0.4 0.2 0  0.42 0.2 0  0.44 0.2 0  0.46 0.2 0  0.48 0.2 0  0.5 0.2 0  0.52 0.2 0  0.54 0.2 0  0.5600000000000001 0.2 0  0.58 0.2 0  0.6 0.2 0  0.62 0.2 0  0.64 0.2 0  0.66 0.2 0  0.68 0.2 0  0.7 0.2 0  0.72 0.2 0  0.74 0.2 0  0.76 0.2 0  0.78 0.2 0  0.8 0.2 0  0.82 0.2 0  0.84 0.2 0  0.86 0.2 0  0.88 0.2 0  0.9 0.2 0  0.92 0.2 0  0.9399999999999999 0.2 0  0.96 0.2 0  0.98 0.2 0  1 0.2 0  0 0.22 0  0.02 0.22 0  0.04 0.22 0  0.06 0.22 0  0.08 0.22 0  0.1 0.22 0  0.12 0.22 0  0.14 0.22 0  0.16 0.22 0  0.18 0.22 0  0.2 0.22 0  0.22 0.22 0  0.24 0.22 0  0.26 0.22 0  0.28 0.22 0  0.3 0.22 0  0.32 0.22 0  0.34 0.22 0  0.36 0.22 0  0.38 0.22 0  0.4 0.22 0  0.42 0.22 0  0.44 0.22 0  0.46 0.22 0  0.48 0.22 0  0.5 0.22 0  0.52 0.22 0  0.54 0.22 0  0.5600000000000001 0.22 0  0.58 0.22 0  0.6 0.22 0  0.62 0.22 0  0.64 0.22 0  0.66 0.22 0  0.68 0.22 0  0.7 0.22 0  0.72 0.22 0  0.74 0.22 0  0.76 0.22 0  0.78 0.22 0  0.8 0.22 0  0.82 0.22 0  0.84 0.22 0  0.86 0.22 0  0.88 0.22 0  0.9 0.22 0  0.92 0.22 0  0.9399999999999999 0.22 0  0.96 0.22 0  0.98 0.22 0  1 0.22 0  0 0.24 0  0.02 0.24 0  0.04 0.24 0  0.06 0.24 0  0.08 0.24 0  0.1 0.24 0  0.12 0.24 0  0.14 0.24 0  0.16 0.24 0  0.18 0.24 0  0.2 0.24 0  0.22 0.24 0  0.24 0.24 0  0.26 0.24 0  0.28 0.24 0  0.3 0.24 0  0.32 0.24 0  0.34 0.24 0  0.36 0.24 0  0.38 0.24 0  0.4 0.24 0  0.42 0.24 0  0.44 0.24 0  0.46 0.24 0  0.48 0.24 0  0.5 0.24 0  0.52 0.24 0  0.54 0.24 0  0.5600000000000001 0.24 0  0.58 0.24 0  0.6 0.24 0  0.62 0.24 0  0.64 0.24 0  0.66 0.24 0  0.68 0.24 0  0.7 0.24 0  0.72 0.24 0  0.74 0.24 0  0.76 0.24 0  0.78 0.24 0  0.8 0.24 0  0.82 0.24 0  0.84 0.24 0  0.86 0.24 0  0.88 0.24 0  0.9 0.24 0  0.92 0.24 0  0.9399999999999999 0.24 0  0.96 0.24 0  0.98 0.24 0  1 0.24 0  0 0.26 0  0.02 0.26 0  0.04 0.26 0  0.06 0.26 0  0.08 0.26 0  0.1 0.26 0  0.12 0.26 0  0.14 0.26 0  0.16 0.26 0  0.18 0.26 0  0.2 0.26 0  0.22 0.26 0  0.24 0.26 0  0.26 0.26 0  0.28 0.26 0  0.3 0.26 0  0.32 0.26 0  0.34 0.26 0  0.36 0.26 0  0.38 0.26 0  0.4 0.26 0  0.42 0.26 0  0.44 0.26 0  0.46 0.26 0  0.48 0.26 0  0.5 0.26 0  0.52 0.26 0  0.54 0.26 0  0.5600000000000001 0.26 0  0.58 0.26 0  0.6 0.26 0  0.62 0.26 0  0.64 0.26 0  0.66 0.26 0  0.68 0.26 0  0.7 0.26 0  0.72 0.26 0  0.74 0.26 0  0.76 0.26 0  0.78 0.26 0  0.8 0.26 0  0.82 0.26 0  0.84 0.26 0  0.86 0.26 0  0.88 0.26 0  0.9 0.26 0  0.92 0.26 0  0.9399999999999999 0.26 0  0.96 0.26 0  0.98 0.26 0  1 0.26 0  0 0.28 0  0.02 0.28 0  0.04 0.28 0  0.06 0.28 0  0.08 0.28 0  0.1 0.28 0  0.12 0.28 0  0.14 0.28 0  0.16 0.28 0  0.18 0.28 0  0.2 0.28 0  0.22 0.28 0  0.24 0.28 0  0.26 0.28 0  0.28 0.28 0  0.3 0.28 0  0.32 0.28 0  0.34 0.28 0  0.36 0.28 0  0.38 0.28 0  0.4 0.28 0  0.42 0.28 0  0.44 0.28 0  0.46 0.28 0  0.48 0.28 0  0.5 0.28 0  0.52 0.28 0  0.54 0.28 0  0.5600000000000001 0.28 0  0.58 0.28 0  0.6 0.28 0  0.62 0.28 0  0.64 0.28 0  0.66 0.28 0  0.68 0.28 0  0.7 0.28 0  0.72 0.28 0  0.74 0.28 0  0.76 0.28 0  0.78 0.28 0  0.8 0.28 0  0.82 0.28 0  0.84 0.28 0  0.86 0.28
[...]
<PointData  Scalars="f_9"> 
<DataArray  type="Float64"  Name="f_9"  format="ascii">8.3029892625321594e-03  1.2513472186786851e-02  1.9721116575265516e-02  2.7623921304575302e-02  3.6109774544464908e-02  4.5158010009144114e-02  5.4761308548321008e-02  6.4914850394300644e-02  7.5612217550943883e-02  8.6843170808955483e-02  9.8592137952659920e-02  1.1083701536671725e-01  1.2354814781291737e-01  1.3668745539483237e-01  1.5020772546337133e-01  1.6405211388125215e-01  1.7815391537079317e-01  1.9243666938899692e-01  2.0681466615389735e-01  2.2119390602183733e-01  2.3547354317255684e-01  2.4954781027796508e-01  2.6330837657849709e-01  2.7664704466999362e-01  2.8945865044232866e-01  3.0164399968252020e-01  3.1311265616314632e-01  3.2378539622056990e-01  3.3359617030622224e-01  3.4249345774549189e-01  3.5044095712080403e-01  3.5741761405054490e-01  3.6341704379527706e-01  3.6844644955767863e-01  3.7252516215963177e-01  3.7568293397684127e-01  3.7795811357487819e-01  3.7939581146816986e-01  3.8004614575027212e-01  3.7996263304064792e-01  3.7920076871424085e-01  3.7781682337684830e-01  3.7586687233900612e-01  3.7340607494913786e-01  3.7048824000648534e-01  3.6716577740579232e-01  3.6349031648990321e-01  3.5951507591222270e-01  3.5530213329642929e-01  3.5100725500553215e-01  3.4695346948419081e-01  4.3165648058048532e-02  3.9218688493491638e-02  4.3119235568846261e-02  4.8258799898386225e-02  5.4408635126132525e-02  6.1395202464615856e-02  6.9128990446672853e-02  7.7556587250703940e-02  8.6641396111128713e-02  9.6354131088468631e-02  1.0666755477983551e-01  1.1755313523829752e-01  1.2897861620269196e-01  1.4090605465254558e-01  1.5329013745720715e-01  1.6607672800455653e-01  1.7920168171669942e-01  1.9259003011739889e-01  2.0615567210011337e-01  2.1980172692391312e-01  2.3342169304363763e-01  2.4690150191425356e-01  2.6012244630289011e-01  2.7296483090628476e-01  2.8531209316713857e-01  2.9705508025729782e-01  3.0809610437067336e-01  3.1835236302965086e-01  3.2775838191706003e-01  3.3626728855984211e-01  3.4385087776707124e-01  3.5049856602435631e-01  3.5621546904378520e-01  3.6101992419429746e-01  3.6494078648241784e-01  3.6801477600679566e-01  3.7028408103100774e-01  3.7179434283584795e-01  3.7259307648316081e-01  3.7272852576143622e-01  3.7224891810429278e-01  3.7120207891928680e-01  3.6963538650369449e-01  3.6759610654160535e-01  3.6513226679317612e-01  3.6229449588437396e-01  3.5913985826629879e-01  3.5574107762366014e-01  3.5220475404501927e-01  3.4888657319191019e-01  3.4578767748714523e-01  7.4094768015538381e-02  6.6948022748204605e-02  6.9248658085025935e-02  7.2790256994484465e-02  7.7550243364995511e-02  8.3305897978933008e-02  8.9926661871042493e-02  9.7328252303692256e-02  1.0545242693562738e-01  1.1425529697683727e-01  1.2370040819143543e-01  1.3375421866508672e-01  1.4438274008127377e-01  1.5554872122354618e-01  1.6720907466821766e-01  1.7931244593589016e-01  1.9179696713883551e-01  2.0458835312723064e-01  2.1759858663254025e-01  2.3072548307768476e-01  2.4385345243632164e-01  2.5685572119247169e-01  2.6959806772008033e-01  2.8194382228749104e-01  2.9375970540886587e-01  3.0492205081218660e-01  3.1532279861732276e-01  3.2487445973074464e-01  3.3351339473572272e-01  3.4120112846106843e-01  3.4792368222477044e-01  3.5368909730138653e-01  3.5852362335924931e-01  3.6246723177552603e-01  3.6556907395257737e-01  3.6788336057805754e-01  3.6946597536997439e-01  3.7037198175878844e-01  3.7065403937888108e-01  3.7036164367658508e-01  3.6954105039504603e-01  3.6823574665582698e-01  3.6648737833067779e-01  3.6433714148062663e-01  3.6182781500440936e-01  3.5900690872484375e-01  3.5593192601941614e-01  3.5268068721944185e-01  3.4936252814548224e-01  3.4640303033638808e-01  3.4221837121537446e-01  1.0229863696322263e-01  9.2674518913947332e-02  9.4284301551824351e-02  9.6824103972347572e-02  1.0062014343304009e-01  1.0547814946649670e-01  1.1126799721649594e-01  1.1789654222121500e-01  1.2529627855679085e-01  1.3341632162959227e-01  1.4221617620510002e-01  1.5166118914843632e-01  1.6171883077664032e-01  1.7235527253310656e-01  1.8353196567059146e-01  1.9520212327704106e-01  2.0730718144100516e-01  2.1977349569871235e-01  2.3250967065659092e-01  2.4540499272717464e-01  2.5832954673107100e-01  2.7113659370533549e-01  2.8366754642820052e-01  2.9575897874243423e-01  3.0725085298688226e-01  3.1799556569875326e-01  3.2786700189614271e-01  3.3676797827261873e-01  3.4463473864332800e-01  3.5143840573550372e-01  3.5718340622631800e-01  3.6190294938665929e-01  3.6565244161475663e-01  3.6850212291316109e-01  3.7052996625019124e-01  3.7181553853037519e-01  3.7243525806305317e-01  3.7245924479977449e-01  3.7194970677536338e-01  3.7096063617954267e-01  3.6953851647646130e-01  3.6772375032424043e-01  3.6555259196039885e-01  3.6305948955711925e-01  3.6027990484475581e-01  3.5725387154093680e-01  3.5403071065040020e-01  3.5067649681059065e-01  3.4727268048422932e-01  3.4427720861518202e-01  3.3861616588775939e-01  1.2847132854052554e-01  1.1665386733164873e-01  1.1782329260407057e-01  1.1962428299624467e-01  1.2265577875426437e-01  1.2676598661807606e-01  1.3184341518411641e-01  1.3780006862133404e-01  1.4456902749310441e-01  1.5209950290772598e-01  1.6035247829493138e-01  1.6929690712439596e-01  1.7890607498405309e-01  1.8915376451186866e-01  2.0000997056860043e-01  2.1143609253349319e-01  2.2337968727243060e-01  2.3576927139039139e-01  2.4850970689656185e-01  2.6147881492973957e-01  2.7452625983560502e-01  2.8747575546074777e-01  3.0013206776548051e-01  3.1229143446080443e-01  3.2375256655247708e-01  3.3432974150229183e-01  3.4386696401931538e-01  3.5225003909607172e-01  3.5941202419003060e-01  3.6533496290795919e-01  3.7004765018711966e-01  3.7361761691720102e-01  3.7614028498691604e-01  3.7772728986533544e-01  3.7849582657771885e-01  3.7855978832980069e-01  3.7802322761877410e-01  3.7697645417662035e-01  3.7549453039526798e-01  3.7363769118240103e-01  3.7145313794996632e-01  3.6897768441046302e-01  3.6624085389684574e-01  3.6326818399244398e-01  3.6008464388188305e-01  3.5671816472734630e-01  3.5320319162661917e-01  3.4958524804902513e-01  3.4591098525638719e-01  3.4268209563811702e-01  3.3539123954089900e-01  1.5293342023392476e-01  1.3910706692324684e-01  1.3996448540158157e-01  1.4119685438820531e-01  1.4362133782596567e-01  1.4711855679766331e-01  1.5159878818771519e-01  1.5698566288983673e-01  1.6321927922340412e-01  1.7025467934034635e-01  1.7805956076731297e-01  1.8661157426487748e-01  1.9589505695841930e-01  2.0589693151845878e-01  2.1660148347085084e-01  2.2798403770390138e-01  2.4000333867616508e-01  2.5259370422803112e-01  2.6565709973323859e-01  2.7905819101722101e-01  2.9262048726920259e-01  3.0612339014560930e-01  3.1931888514215628e-01  3.3194395421402123e-01  3.4373677603577552e-01  3.5445237871742530e-01  3.6388614880804721e-01  3.7189823462372279e-01  3.7841381236943555e-01  3.8342954673080759e-01  3.8700748922553457e-01  3.8926484211432200e-01  3.9035328024877780e-01  3.9044202416905255e-01  3.8970213963789990e-01  3.8829391035557709e-01  3.8635791483001719e-01  3.8401049505191254e-01  3.8134272925218149e-01  3.7842211786177471e-01  3.7529603861122945e-01  3.7199609051508714e-01  3.6854269712112253e-01  3.6494956904683701e-01  3.6122779373894270e-01  3.5738938815913723e-01  3.5345001018206101e-01  3.4943198994368313e-01  3.4534991273481142e-01  3.4176223627305163e-01  3.3277402953027813e-01  1.7585151689494402e-01  1.6016378107260479e-01  1.6078241685714290e-01  1.6155986990315133e-01  1.6349576255350898e-01  1.6649169289043519e-01  1.7047668816428738e-01  1.7538750545409118e-01  1.8117460957795997e-01  1.8780298766643247e-01  1.9525168585604064e-01  2.0351232132742358e-01  2.1258638786033215e-01  2.2248105513275634e-01  2.3320290722949336e-01  2.4474981909308982e-01  2.5710004527640712e-01  2.7020291823501996e-01  2.8395677436432776e-01  2.9821268247341404e-01  3.1277015711346773e-01  3.2734018592349140e-01  3.4159385351328225e-01  3.5519266980361192e-01  3.6777999679162693e-01  3.7902623238504812e-01  3.8863343064708300e-01  3.9644216225064077e-01  4.0235093916464226e-01  4.0638570900113458e-01  4.0866627186702120e-01  4.0936385145817306e-01  4.0872371579127204e-01  4.0699025784235981e-01  4.0440980655962616e-01  4.0120558335752199e-01  3.9756548724965740e-01  3.9363822666021964e-01  3.8953339815234156e-01  3.8532545823579278e-01  3.8105983285948397e-01  3.7675971600952912e-01  3.7243272261606603e-01  3.6807688188740872e-01  3.6368566582299544e-01  3.5925185409778848e-01  3.5476995771525888e-01  3.5023887511487944e-01  3.4564513535525665e-01  3.4161019919667740e-01  3.3089943534018229e-01  1.9731131316647166e-01  1.7989480014599032e-01  1.8032122331640690e-01  1.8072388592415045e-01  1.8226063118642061e-01  1.8484510446473670e-01  1.8842061448468195e-01  1.9293609646507687e-01  1.9835362804996842e-01  2.0465085154801910e-01  2.1182212866107686e-01  2.1987838462549827e-01  2.2884529583478649e-01  2.3875929169367063e-01  2.4966015038923525e-01  2.6158313241070386e-01  2.7453190606255590e-01  2.8849101498811597e-01  3.0333642633391888e-01  3.1895051768108812e-01  3.3511584767913877e-01  3.5130691875656828e-01  3.6728566142134772e-01  3.8225089017870417e-01  3.9639217091304241e-01  4.0867546481868705e-01  4.1870404238052183e-01  4.2651054230620694e-01  4.3216242354243461e-01  4.3530236932682814e-01  4.3577885061965949e-01  4.3459074302634693e-01  4.3177906215990214e-01  4.2778135906966730e-01  4.2292116835789278e-01  4.1750345063601524e-01  4.1177777590321363e-01  4.0593207000586501e-01  4.0009517920934740e-01  3.9434579852703766e-01  3.8872281823363225e-01  3.8323558168876987e-01  3.7787331972879290e-01  3.7261318230770385e-01  3.6742654919070483e-01  3.6228350747143762e-01  3.5715539415269348e-01  3.5201767313080740e-01  3.4683164938325217e-01  3.4228270479972217e-01  3.2985077010671870e-01  2.1734925810446001e-01  1.9833141908929014e-01  1.9859862915285442e-01  1.9868629249302822e-01  1.9989237029406423e-01  2.0213614315992171e-01  2.0537088527043926e-01  2.0955569971834237e-01  2.1466415705540670e-01  2.2068808513216881e-01  2.2764040196868390e-01  2.3555665326322639e-01  2.4449460552679717e-01  2.5453190993584085e-01  2.6575314660752825e-01  2.7824753561366616e-01  2.9205051731289172e-01  3.0724096462428885e-01  3.2355793464226057e-01  3.4127366447727298e-01  3.5987603950442065e-01  3.7502058260260518e-01  3.8657317501258437e-01  3.9777825225024444e-01  4.0929034603026210e-01  4.2083906051339359e-01  4.3210635200917341e-01  4.4304115395804411e-01  4.5414716717509196e-01  4.6552499697353678e-01  4.6994470231045193e-01  4.6513263648673836e-01  4.6050260011633015e-01  4.5331325058912680e-01  4.4556411871721491e-01  4.3740026638291107e-01  4.2911378337462353e-01  4.2094190687924693e-01  4.1302954863506458e-01  4.0545291131113670e-01  3.9823610882809829e-01  3.9136595953713560e-01  3.8480513009541212e-01  3.7850280807516062e-01  3.7240259719812518e-01  3.6644776311400296e-01  3.6058403138298450e-01  3.5476281472990451e-01  3.4892157651977318e-01  3.4380712165749694e-01  3.2967535496538491e-01  2.3596942419911685e-01  2.1547781161923257e-01  2.1561172865232806e-01  2.1543142482289937e-01  2.1636001769655594e-01  2.1831765230387490e-01  2.2126360940649745e-01  2.2516455041970257e-01  2.3000432765666345e-01  2.3578929576069058e-01  2.4255324631390499e-01  2.5036143822753593e-01  2.5931344144092827e-01  2.6953384276954401e-01  2.8117300866815775e-01  2.9440564948883030e-01  3.0920037185938321e-01  3.2654971946264144e-01  3.4239578585882208e-01  3.5265778788437230e-01  3.6341623163011200e-01  3.7442005183551091e-01  3.8530999875438438e-01  3.9628529201085422e-01  4.0723527373350948e-01  4.1811656193105845e-01  4.2886497489440650e-01  4.3946386821586464e-01  4.4986553452616851e-01  4.6003801782987791e-01  4.7021025377798181e-01  4.7913669776691648e-01  4.8968444187407401e-01  4.8358440177845180e-01  4.7297444639764746e-01  4.6109899552610306e-01  4.4965792648605352e-01  4.3867550777559078e-01  4.2829369672527601e-01  4.1857395670562780e-01  4.0951218129584610e-01  4.0105939571667226e-01  3.9313998598488442e-01  3.8566564252061070e-01  3.7854492943308388e-01  3.7168917251060141e-01  3.6501533646098072e-01  3.5844938807119670e-01  3.5190519094989642e-01  3.4618634770525719e-01  3.3039289878650091e-01  2.5315404835469424e-01  2.3131946881492757e-01  2.3134252170812078e-01  2.3093308372145666e-01  2.3162598179801069e-01  2.3333831168112523e-01  2.3603148820635148e-01  2.3967646270441290e-01  2.4426495754234651e-01  2.4981670823498286e-01  2.5638720104955537e-01  2.6407504291248129e-01  2.7302385192208117e-01  2.8341897211413719e-01  2.9544949359901340e-01  3.0981406319951182e-01  3.2477987167684841e-01  3.3397729233025691e-01  3.4369880708974071e-01  3.5369872849829270e-01  3.6385762797012827e-01  3.7414363121281030e-01  3.8448312371644539e-01  3.9486312219617781e-01  4.0523571281492377e-01  4.1555767720630737e-01  4.2578626165602396e-01  4.3588579445147041e-01  4.4582254355609979e-01  4.5556299212910678e-01  4.6506718781346079e-01  4.7433193177481303e-01  4.8323633921995657e-01  4.9196944354078243e-01  5.0102129382630056e-01  4.8839137274474992e-01  4.7342429458863722e-01  4.5907150146198444e-01  4.4577744198209501e-01  4.3357490282958860e-01  4.2241077416184819e-01  4.1218027948782066e-01  4.0275319922054026e-01  3.9399132291088140e-01  3.8575918764257311e-01  3.7793003254485419e-01  3.7038823008455618e-01  3.6303229150403271e-01  3.5575200351700603e-01  3.4940185821273567e-01  3.3200024895150798e-01  2.6887105390943711e-01  2.4582956832671071e-01  2.4576293359772461e-01  2.4515803316096721e-01  2.4564856206017505e-01  2.4714494711362597e-01  2.4960658166072508e-01  2.5300449106070844e-01  2.5733429267360508e-01  2.6262577140151255e-01  2.6895339236758853e-01  2.7644475382961942e-01  2.8529559305055724e-01  2.9574348951465890e-01  3.0877364242600686e-01  3.1916839837624739e-01  3.2719470793281280e-01  3.3617519459361911e-01  3.4535773754313326e-01  3.5474542149044580e-01  3.6431713251571118e-01  3.7402410301561939e-01  3.8381928669854931e-01  3.9366460112769786e-01  4.0351795514172129e-01  4.1333913161686048e-01  4.2308940446158294e-01  4.3273306317784965e-01  4.4223678771684061e-01  4.5156865881474373e-01  4.6069793667073211e-01  4.6959734564493927e-01  4.7824896874908152e-01  4.8661488342801884e-01  4.9465919542393322e-01  5.0199410286773261e-01  5.0031275899072880e-01  4.8195276433330642e-01  4.6527308913485249e-01  4.5023820293792083e-01  4.3672335213697566e-01  4.2453823916097227e-01  4.1347632889635638e-01  4.0333428917280872e-01  3.9392215462627556e-01  3.8506817983014535e-01  3.7661993214651912e-01  3.6844619550763508e-01  3.6041192749845541e-01  3.5341592561696072e-01  3.3447452968523772e-01  2.8307998738311008e-01  2.5897418430337399e-01  2.5883941748109535e-01  2.5806991480965180e-01  2.5838550819093115e-01  2.5968627283951112e-01  2.6192482590791927e-01  2.6506678471895123e-01  2.6910558569441301e-01  2.7407351803756191e-01  2.8005359028365989e-01  2.8720795865009496e-01  2.9582880258171007e-01  3.0669993774777227e-01  3.1445597571744349e-01  3.2189638714271873e-01  3.2994689951864292e-01  3.3830493812419249e-01  3.4692891421369754e-01  3.5578821192413179e-01  3.6483632102346275e-01  3.7403038256496768e-01  3.8332620625705777e-01  3.9268329164533744e-01  4.0206250909191255e-01  4.1142601902883108e-01  4.2073751910048068e-01  4.2996277523198512e-01  4.3906960508618686e-01  4.4802766033108610e-01  4.5680858864261881e-01  4.6538666081175245e-01  4.7373896333392929e-01  4.8184545813355523e-01  4.8968535266134916e-01  4.9725184788112053e-01  5.0463688965079867e-01  5.0717661291649341e-01  4.8640613738069194e-01  4.6823823686632809e-01  4.5215828068399605e-01  4.3787893765297070e-01  4.2509154945837163e-01  4.1351046621718945e-01  4.0287993757444751e-01  3.9297620167783759e-01  3.8360597863347695e-01  3.7460629564990733e-01  3.6581672677901228e-01  3.5817361197240588e-01  3.3777563783271031e-01  2.9573700235844796e-01  2.7071675399052220e-01  2.7053718168682489e-01  2.6963326120011089e-01  2.6979811555365951e-01  2.7091755418022934e-01  2.7293188541711733e-01  2.7579424609297143e-01  2.7948678060061960e-01  2.8402939256354870e-01  2.8953463356864578e-01  2.9619171768397418e-01  3.0466072485269019e-01  3.1120172116244021e-01  3.1774663654281127e-01  3.2493363464514158e-01  3.3246506361331585e-01  3.4032556761432942e-01  3.4846536803917738e-01  3.5684544114592920e-01  3.6542038620508094e-01  3.7414814019056308e-01  3.8298777684031438e-01  3.9190012921445322e-01  4.0084762008248809e-01  4.0979420245875298e-01  4.1870543643574254e-01  4.2754867874267011e-01  4.3629314550490034e-01  4.4490992669721319e-01  4.5337210075894246e-01  4.6165491968420919e-01  4.6973581399398229e-01  4.7759417623208000e-01  4.8521156012803252e-01  4.9257253682751739e-01  4.9965846753111570e-01  5.0660513748417813e-01  5.0866752438907470e-01  4.8708144926660268e-01  4.6832877290885105e-01  4.5187823440897568e-01  4.3732888762021210e-01  4.2429642962337522e-01  4.1244825061292251e-01  4.0150235126668826e-01  3.9122153901857470e-01  3.8140994988262455e-01  3.7188193543153902e-01  3.6360488559524179e-01  3.4184860809354861e-01  3.0679913706781564e-01  2.8102194781096623e-01  2.8082399304664268e-01  2.7981733611315013e-01  2.7985541830324639e-01  2.8080567550718216e-01  2.8258986165812366e-01  2.8514002075272932e-01  2.8841262407688989e-01  2.9241511073636711e-01  2.9714396987696268e-01  3.0341545007356546e-01  3.0917849707978740e-01  3.1467534686288579e-01  3.2101851733975678e-01  3.2773975251381893e-01  3.3483359255006229e-01  3.4225481339695657e-01  3.4996102315332966e-01  3.5790882297663335e-01  3.6605618620590308e-01  3.7436271971970353e-01  3.8278939997299954e-01  3.9129872761711432e-01  3.9985473522155063e-01  4.0842300479212446e-01  4.1697072162213766e-01  4.2546675473847390e-01  4.3388171621058325e-01  4.4218800852961343e-01  4.5035988888387057e-01  4.5837353313582058e-01  4.6620704371218386e-01  4.7384041912214042e-01  4.8125566798439590e-01  4.8843716820778688e-01  4.9537158503921436e-01  5.0204771984493479e-01  5.0848855251326741e-01  5.0661631505979676e-01  4.8473282780353993e-01  4.6613982641089552e-01  4.4986778774395625e-01  4.3543202407743054e-01  4.2241540849544307e-01  4.1047350849324110e-01  3.9932421198441376e-01  3.8873931949174123e-01  3.7850939247585047e-01  3.6962706628014608e-01  3.4662612043489099e-01  3.1622793406045174e-01  2.8985893878346974e-01  2.8967342800131962e-01  2.8859950629682196e-01  2.8853800490400011e-01  2.8933392835324978e-01  2.9088375563969493e-01  2.9308685793898259e-01  2.9585645454445680e-01  2.9909262810886938e-01  3.0353371226621051e-01  3.0815807753796942e-01  3.1257435740678913e-01  3.1810561573057167e-01  3.2402209100171525e-01  3.3035522779246973e-01  3.3705986520316161e-01  3.4409258764944112e-01  3.5141017462360902e-01  3.5897100083157940e-01  3.6673488026598583e-01  3.7466305823062718e-01  3.8271818538232943e-01  3.9086437951953668e-01  3.9906725468141385e-01  4.0729394790960777e-01  4.1551315676739137e-01  4.2369518470651801e-01  4.3181198216390893e-01  4.3983718182949028e-01  4.4774613044693168e-01  4.5551590940047393e-01  4.6312533212985563e-01  4.7055492822839035e-01  4.7778693866345978e-01  4.8480528624917585e-01  4.9159540058619189e-01  4.9814228218009415e-01  5.0442208682385914e-01  5.1053933061075629e-01  5.0082238396470369e-01  4.8020648044762632e-01  4.6234331918193511e-01  4.4662748841073246e-01  4.3254865868516112e-01  4.1970047879294436e-01  4.0775842242325633e-01  3.9646507415428922e-01  3.8559045170964396e-01  3.7614768289953582e-01  3.5203126294280274e-01  3.2399235418681244e-01  2.9720399070226661e-01  2.9706739655915271e-01  2.9596782395883992e-01  2.9584095516351572e-01  2.9650585564139875e-01  2.9782726057325759e-01  2.9965927873207943e-01  3.0187847533549772e-01  3.0460051096383217e-01  3.0746920006118428e-01  3.1146411107029320e-01  3.1607950536428436e-01  3.2119969107806456e-0