<?xml version="1.0"?>
<VTKFile type="UnstructuredGrid"  version="0.1"  >
<UnstructuredGrid>
<Piece  NumberOfPoints="5101" NumberOfCells="10000">
<Points>
<DataArray  type="Float64"  NumberOfComponents="3"  format="ascii">0 0 0  0.2 0 0  0.4 0 0  0.6 0 0  0.8 0 0  1 0 0  1.2 0 0  1.4 0 0  1.6 0 0  1.8 0 0  2 0 0  2.2 0 0  2.4 0 0  2.6 0 0  2.8 0 0  3 0 0  3.2 0 0  3.4 0 0  3.6 0 0  3.8 0 0  4 0 0  4.2 0 0  4.4 0 0  4.6 0 0  4.8 0 0  5 0 0  5.2 0 0  5.4 0 0  5.6 0 0  5.8 0 0  6 0 0  6.2 0 0  6.4 0 0  6.6 0 0  6.8 0 0  7 0 0  7.2 0 0  7.4 0 0  7.6 0 0  7.8 0 0  8 0 0  8.199999999999999 0 0  8.4 0 0  8.6 0 0  8.800000000000001 0 0  9 0 0  9.199999999999999 0 0  9.4 0 0  9.6 0 0  9.800000000000001 0 0  10 0 0  0 0.2 0  0.2 0.2 0  0.4 0.2 0  0.6 0.2 0  0.8 0.2 0  1 0.2 0  1.2 0.2 0  1.4 0.2 0  1.6 0.2 0  1.8 0.2 0  2 0.2 0  2.2 0.2 0  2.4 0.2 0  2.6 0.2 0  2.8 0.2 0  3 0.2 0  3.2 0.2 0  3.4 0.2 0  3.6 0.2 0  3.8 0.2 0  4 0.2 0  4.2 0.2 0  4.4 0.2 0  4.6 0.2 0  4.8 0.2 0  5 0.2 0  5.2 0.2 0  5.4 0.2 0  5.6 0.2 0  5.8 0.2 0  6 0.2 0  6.2 0.2 0  6.4 0.2 0  6.6 0.2 0  6.8 0.2 0  7 0.2 0  7.2 0.2 0  7.4 0.2 0  7.6 0.2 0  7.8 0.2 0  8 0.2 0  8.199999999999999 0.2 0  8.4 0.2 0  8.6 0.2 0  8.800000000000001 0.2 0  9 0.2 0  9.199999999999999 0.2 0  9.4 0.2 0  9.6 0.2 0  9.800000000000001 0.2 0  10 0.2 0  0 0.4 0  0.2 0.4 0  0.4 0.4 0  0.6 0.4 0  0.8 0.4 0  1 0.4 0  1.2 0.4 0  1.4 0.4 0  1.6 0.4 0  1.8 0.4 0  2 0.4 0  2.2 0.4 0  2.4 0.4 0  2.6 0.4 0  2.8 0.4 0  3 0.4 0  3.2 0.4 0  3.4 0.4 0  3.6 0.4 0  3.8 0.4 0  4 0.4 0  4.2 0.4 0  4.4 0.4 0  4.6 0.4 0  4.8 0.4 0  5 0.4 0  5.2 0.4 0  5.4 0.4 0  5.6 0.4 0  5.8 0.4 0  6 0.4 0  6.2 0.4 0  6.4 0.4 0  6.6 0.4 0  6.8 0.4 0  7 0.4 0  7.2 0.4 0  7.4 0.4 0  7.6 0.4 0  7.8 0.4 0  8 0.4 0  8.199999999999999 0.4 0  8.4 0.4 0  8.6 0.4 0  8.800000000000001 0.4 0  9 0.4 0  9.199999999999999 0.4 0  9.4 0.4 0  9.6 0.4 0  9.800000000000001 0.4 0  10 0.4 0  0 0.6 0  0.2 0.6 0  0.4 0.6 0  0.6 0.6 0  0.8 0.6 0  1 0.6 0  1.2 0.6 0  1.4 0.6 0  1.6 0.6 0  1.8 0.6 0  2 0.6 0  2.2 0.6 0  2.4 0.6 0  2.6 0.6 0  2.8 0.6 0  3 0.6 0  3.2 0.6 0  3.4 0.6 0  3.6 0.6 0  3.8 0.6 0  4 0.6 0  4.2 0.6 0  4.4 0.6 0  4.6 0.6 0  4.8 0.6 0  5 0.6 0  5.2 0.6 0  5.4 0.6 0  5.6 0.6 0  5.8 0.6 0  6 0.6 0  6.2 0.6 0  6.4 0.6 0  6.6 0.6 0  6.8 0.6 0  7 0.6 0  7.2 0.6 0  7.4 0.6 0  7.6 0.6 0  7.8 0.6 0  8 0.6 0  8.199999999999999 0.6 0  8.4 0.6 0  8.6 0.6 0  8.800000000000001 0.6 0  9 0.6 0  9.199999999999999 0.6 0  9.4 0.6 0  9.6 0.6 0  9.800000000000001 0.6 0  10 0.6 0  0 0.8 0  0.2 0.8 0  0.4 0.8 0  0.6 0.8 0  0.8 0.8 0  1 0.8 0  1.2 0.8 0  1.4 0.8 0  1.6 0.8 0  1.8 0.8 0  2 0.8 0  2.2 0.8 0  2.4 0.8 0  2.6 0.8 0  2.8 0.8 0  3 0.8 0  3.2 0.8 0  3.4 0.8 0  3.6 0.8 0  3.8 0.8 0  4 0.8 0  4.2 0.8 0  4.4 0.8 0  4.6 0.8 0  4.8 0.8 0  5 0.8 0  5.2 0.8 0  5.4 0.8 0  5.6 0.8 0  5.8 0.8 0  6 0.8 0  6.2 0.8 0  6.4 0.8 0  6.6 0.8 0  6.8 0.8 0  7 0.8 0  7.2 0.8 0  7.4 0.8 0  7.6 0.8 0  7.8 0.8 0  8 0.8 0  8.199999999999999 0.8 0  8.4 0.8 0  8.6 0.8 0  8.800000000000001 0.8 0  9 0.8 0  9.199999999999999 0.8 0  9.4 0.8 0  9.6 0.8 0  9.800000000000001 0.8 0  10 0.8 0  0 1 0  0.2 1 0  0.4 1 0  0.6 1 0  0.8 1 0  1 1 0  1.2 1 0  1.4 1 0  1.6 1 0  1.8 1 0  2 1 0  2.2 1 0  2.4 1 0  2.6 1 0  2.8 1 0  3 1 0  3.2 1 0  3.4 1 0  3.6 1 0  3.8 1 0  4 1 0  4.2 1 0  4.4 1 0  4.6 1 0  4.8 1 0  5 1 0  5.2 1 0  5.4 1 0  5.6 1 0  5.8 1 0  6 1 0  6.2 1 0  6.4 1 0  6.6 1 0  6.8 1 0  7 1 0  7.2 1 0  7.4 1 0  7.6 1 0  7.8 1 0  8 1 0  8.199999999999999 1 0  8.4 1 0  8.6 1 0  8.800000000000001 1 0  9 1 0  9.199999999999999 1 0  9.4 1 0  9.6 1 0  9.800000000000001 1 0  10 1 0  0 1.2 0  0.2 1.2 0  0.4 1.2 0  0.6 1.2 0  0.8 1.2 0  1 1.2 0  1.2 1.2 0  1.4 1.2 0  1.6 1.2 0  1.8 1.2 0  2 1.2 0  2.2 1.2 0  2.4 1.2 0  2.6 1.2 0  2.8 1.2 0  3 1.2 0  3.2 1.2 0  3.4 1.2 0  3.6 1.2 0  3.8 1.2 0  4 1.2 0  4.2 1.2 0  4.4 1.2 0  4.6 1.2 0  4.8 1.2 0  5 1.2 0  5.2 1.2 0  5.4 1.2 0  5.6 1.2 0  5.8 1.2 0  6 1.2 0  6.2 1.2 0  6.4 1.2 0  6.6 1.2 0  6.8 1.2 0  7 1.2 0  7.2 1.2 0  7.4 1.2 0  7.6 1.2 0  7.8 1.2 0  8 1.2 0  8.199999999999999 1.2 0  8.4 1.2 0  8.6 1.2 0  8.800000000000001 1.2 0  9 1.2 0  9.199999999999999 1.2 0  9.4 1.2 0  9.6 1.2 0  9.800000000000001 1.2 0  10 1.2 0  0 1.4 0  0.2 1.4 0  0.4 1.4 0  0.6 1.4 0  0.8 1.4 0  1 1.4 0  1.2 1.4 0  1.4 1.4 0  1.6 1.4 0  1.8 1.4 0  2 1.4 0  2.2 1.4 0  2.4 1.4 0  2.6 1.4 0  2.8 1.4 0  3 1.4 0  3.2 1.4 0  3.4 1.4 0  3.6 1.4 0  3.8 1.4 0  4 1.4 0  4.2 1.4 0  4.4 1.4 0  4.6 1.4 0  4.8 1.4 0  5 1.4 0  5.2 1.4 0  5.4 1.4 0  5.6 1.4 0  5.8 1.4 0  6 1.4 0  6.2 1.4 0  6.4 1.4 0  6.6 1.4 0  6.8 1.4 0  7 1.4 0  7.2 1.4 0  7.4 1.4 0  7.6 1.4 0  7.8 1.4 0  8 1.4 0  8.199999999999999 1.4 0  8.4 1.4 0  8.6 1.4 0  8.800000000000001 1.4 0  9 1.4 0  9.199999999999999 1.4 0  9.4 1.4 0  9.6 1.4 0  9.800000000000001 1.4 0  10 1.4 0  0 1.6 0  0.2 1.6 0  0.4 1.6 0  0.6 1.6 0  0.8 1.6 0  1 1.6 0  1.2 1.6 0  1.4 1.6 0  1.6 1.6 0  1.8 1.6 0  2 1.6 0  2.2 1.6 0  2.4 1.6 0  2.6 1.6 0  2.8 1.6 0  3 1.6 0  3.2 1.6 0  3.4 1.6 0  3.6 1.6 0  3.8 1.6 0  4 1.6 0  4.2 1.6 0  4.4 1.6 0  4.6 1.6 0  4.8 1.6 0  5 1.6 0  5.2 1.6 0  5.4 1.6 0  5.6 1.6 0  5.8 1.6 0  6 1.6 0  6.2 1.6 0  6.4 1.6 0  6.6 1.6 0  6.8 1.6 0  7 1.6 0  7.2 1.6 0  7.4 1.6 0  7.6 1.6 0  7.8 1.6 0  8 1.6 0  8.199999999999999 1.6 0  8.4 1.6 0  8.6 1.6 0  8.800000000000001 1.6 0  9 1.6 0  9.199999999999999 1.6 0  9.4 1.6 0  9.6 1.6 0  9.800000000000001 1.6 0  10 1.6 0  0 1.8 0  0.2 1.8 0  0.4 1.8 0  0.6 1.8 0  0.8 1.8 0  1 1.8 0  1.2 1.8 0  1.4 1.8 0  1.6 1.8 0  1.8 1.8 0  2 1.8 0  2.2 1.8 0  2.4 1.8 0  2.6 1.8 0  2.8 1.8 0  3 1.8 0  3.2 1.8 0  3.4 1.8 0  3.6 1.8 0  3.8 1.8 0  4 1.8 0  4.2 1.8 0  4.4 1.8 0  4.6 1.8 0  4.8 1.8 0  5 1.8 0  5.2 1.8 0  5.4 1.8 0  5.6 1.8 0  5.8 1.8 0  6 1.8 0  6.2 1.8 0  6.4 1.8 0  6.6 1.8 0  6.8 1.8 0  7 1.8 0  7.2 1.8 0  7.4 1.8 0  7.6 1.8 0  7.8 1.8 0  8 1.8 0  8.199999999999999 1.8 0  8.4 1.8 0  8.6 1.8 0  8.800000000000001 1.8 0  9 1.8 0  9.199999999999999 1.8 0  9.4 1.8 0  9.6 1.8 0  9.800000000000001 1.8 0  10 1.8 0  0 2 0  0.2 2 0  0.4 2 0  0.6 2 0  0.8 2 0  1 2 0  1.2 2 0  1.4 2 0  1.6 2 0  1.8 2 0  2 2 0  2.2 2 0  2.4 2 0  2.6 2 0  2.8 2 0  3 2 0  3.2 2 0  3.4 2 0  3.6 2 0  3.8 2 0  4 2 0  4.2 2 0  4.4 2 0  4.6 2 0  4.8 2 0  5 2 0  5.2 2 0  5.4 2 0  5.6 2 0  5.8 2 0  6 2 0  6.2 2 0  6.4 2 0  6.6 2 0  6.8 2 0  7 2 0  7.2 2 0  7.4 2 0  7.6 2 0  7.8 2 0  8 2 0  8.199999999999999 2 0  8.4 2 0  8.6 2 0  8.800000000000001 2 0  9 2 0  9.199999999999999 2 0  9.4 2 0  9.6 2 0  9.800000000000001 2 0  10 2 0  0 2.2 0  0.2 2.2 0  0.4 2.2 0  0.6 2.2 0  0.8 2.2 0  1 2.2 0  1.2 2.2 0  1.4 2.2 0  1.6 2.2 0  1.8 2.2 0  2 2.2 0  2.2 2.2 0  2.4 2.2 0  2.6 2.2 0  2.8 2.2 0  3 2.2 0  3.2 2.2 0  3.4 2.2 0  3.6 2.2 0  3.8 2.2 0  4 2.2 0  4.2 2.2 0  4.4 2.2 0  4.6 2.2 0  4.8 2.2 0  5 2.2 0  5.2 2.2 0  5.4 2.2 0  5.6 2.2 0  5.8 2.2 0  6 2.2 0  6.2 2.2 0  6.4 2.2 0  6.6 2.2 0  6.8 2.2 0  7 2.2 0  7.2 2.2 0  7.4 2.2 0  7.6 2.2 0  7.8 2.2 0  8 2.2 0  8.199999999999999 2.2 0  8.4 2.2 0  8.6 2.2 0  8.800000000000001 2.2 0  9 2.2 0  9.199999999999999 2.2 0  9.4 2.2 0  9.6 2.2 0  9.800000000000001 2.2 0  10 2.2 0  0 2.4 0  0.2 2.4 0  0.4 2.4 0  0.6 2.4 0  0.8 2.4 0  1 2.4 0  1.2 2.4 0  1.4 2.4 0  1.6 2.4 0  1.8 2.4 0  2 2.4 0  2.2 2.4 0  2.4 2.4 0  2.6 2.4 0  2.8 2.4 0  3 2.4 0  3.2 2.4 0  3.4 2.4 0  3.6 2.4 0  3.8 2.4 0  4 2.4 0  4.2 2.4 0  4.4 2.4 0  4.6 2.4 0  4.8 2.4 0  5 2.4 0  5.2 2.4 0  5.4 2.4 0  5.6 2.4 0  5.8 2.4 0  6 2.4 0  6.2 2.4 0  6.4 2.4 0  6.6 2.4 0  6.8 2.4 0  7 2.4 0  7.2 2.4 0  7.4 2.4 0  7.6 2.4 0  7.8 2.4 0  8 2.4 0  8.199999999999999 2.4 0  8.4 2.4 0  8.6 2.4 0  8.800000000000001 2.4 0  9 2.4 0  9.199999999999999 2.4 0  9.4 2.4 0  9.6 2.4 0  9.800000000000001 2.4 0  10 2.4 0  0 2.6 0  0.2 2.6 0  0.4 2.6 0  0.6 2.6 0  0.8 2.6 0  1 2.6 0  1.2 2.6 0  1.4 2.6 0  1.6 2.6 0  1.8 2.6 0  2 2.6 0  2.2 2.6 0  2.4 2.6 0  2.6 2.6 0  2.8 2.6 0  3 2.6 0  3.2 2.6 0  3.4 2.6 0  3.6 2.6 0  3.8 2.6 0  4 2.6 0  4.2 2.6 0  4.4 2.6 0  4.6 2.6 0  4.8 2.6 0  5 2.6 0  5.2 2.6 0  5.4 2.6 0  5.6 2.6 0  5.8 2.6 0  6 2.6 0  6.2 2.6 0  6.4 2.6 0  6.6 2.6 0  6.8 2.6 0  7 2.6 0  7.2 2.6 0  7.4 2.6 0  7.6 2.6 0  7.8 2.6 0  8 2.6 0  8.199999999999999 2.6 0  8.4 2.6 0  8.6 2.6 0  8.800000000000001 2.6 0  9 2.6 0  9.199999999999999 2.6 0  9.4 2.6 0  9.6 2.6 0  9.800000000000001 2.6 0  10 2.6 0  0 2.8 0  0.2 2.8 0  0.4 2.8 0  0.6 2.8 0  0.8 2.8 0  1 2.8 0  1.2 2.8 0  1.4 2.8 0  1.6 2.8 0  1.8 2.8 0  2 2.8 0  2.2 2.8 0  2.4 2.8 0  2.6 2.8 0  2.8 2.8 0  3 2.8 0  3.2 2.8 0  3.4 2.8 0  3.6 2.8 0  3.8 2.8 0  4 2.8 0  4.2 2.8 0  4.4 2.8 0  4.6 2.8 0  4.8 2.8 0  5 2.8 0  5.2 2.8 0  5.4 2.8 0  5.6 2.8 0  5.8 2.8 0  6 2.8 0  6.2 2.8 0  6.4 2.8 0  6.6 2.8 0  6.8 2.8 0  7 2.8 0  7.2 2.8 0  7.4 2.8 0  7.6 2.8 0  7.8 2.8 0  8 2.8 0  8.199999999999999 2.8 0  8.4 2.8 0  8.6 2.8 0  8.800000000000001 2.8 0  9 2.8 0  9.199999999999999 2.8 0  9.4 2.8 0  9.6 2.8 0  9.800000000000001 2.8 0  10 2.8 0  0 3 0  0.2 3 0  0.4 3 0  0.6 3 0  0.8 3 0  1 3 0  1.2 3 0  1.4 3 0  1.6 3 0  1.8 3 0  2 3 0  2.2 3 0  2.4 3 0  2.6 3 0  2.8 3 0  3 3 0  3.2 3 0  3.4 3 0  3.6 3 0  3.8 3 0  4 3 0  4.2 3 0  4.4 3 0  4.6 3 0  4.8 3 0  5 3 0  5.2 3 0  5.4 3 0  5.6 3 0  5.8 3 0  6 3 0  6.2 3 0  6.4 3 0  6.6 3 0  6.8 3 0  7 3 0  7.2 3 0  7.4 3 0  7.6 3 0  7.8 3 0  8 3 0  8.199999999999999 3 0  8.4 3 0  8.6 3 0  8.800000000000001 3 0  9 3 0  9.199999999999999 3 0  9.4 3 0  9.6 3 0  9.800000000000001 3 0  10 3 0  0 3.2 0  0.2 3.2 0  0.4 3.2 0  0.6 3.2 0  0.8 3.2 0  1 3.2 0  1.2 3.2 0  1.4 3.2 0  1.6 3.2 0  1.8 3.2 0  2 3.2 0  2.2 3.2 0  2.4 3.2 0  2.6 3.2 0  2.8 3.2 0  3 3.2 0  3.2 3.2 0  3.4 3.2 0  3.6 3.2 0  3.8 3.2 0  4 3.2 0  4.2 3.2 0  4.4 3.2 0  4.6 3.2 0  4.8 3.2 0  5 3.2 0  5.2 3.2 0  5.4 3.2 0  5.6 3.2 0  5.8 3.2 0  6 3.2 0  6.2 3.2 0  6.4 3.2 0  6.6 3.2 0  6.8 3.2 0  7 3.2 0  7.2 3.2 0  7.4 3.2 0  7.6 3.2 0  7.8 3.2 0  8 3.2 0  8.199999999999999 3.2 0  8.4 3.2 0  8.6 3.2 0  8.800000000000001 3.2 0  9 3.2 0  9.199999999999999 3.2 0  9.4 3.2 0  9.6 3.2 0  9.800000000000001 3.2 0  10 3.2 0  0 3.4 0  0.2 3.4 0  0.4 3.4 0  0.6 3.4 0  0.8 3.4 0  1 
[...]
<PointData  Scalars="f_14"> 
<DataArray  type="Float64"  Name="f_14"  format="ascii">9.3437451379923686e-01  9.2998346056694203e-01  9.1929467712090540e-01  9.0554000811463620e-01  8.9112267246964416e-01  8.7752977563246282e-01  8.6522226456313867e-01  8.5342807353007732e-01  8.3987215762842393e-01  8.2048903069175150e-01  7.8918402474144944e-01  7.3780983965633173e-01  6.5674793157139222e-01  5.3669822342529072e-01  3.7191849702601953e-01  1.6212672922064086e-01  9.7545409470804810e-04  9.6836445019812578e-05  3.5505857133160177e-05  1.8007397987682028e-05  9.7943341178076344e-06  6.0067911429719806e-06  4.1857515191461071e-06  3.2749285898085383e-06  2.8686272238845723e-06  2.8156419477982748e-06  3.0709663865285398e-06  3.6613120959645655e-06  4.7197882543329738e-06  6.6343282649886503e-06  1.0446568076140735e-05  1.8585504827371118e-05  3.5482709509521573e-05  9.3431003926541120e-05  1.0095784619936442e-03  1.6202207980640351e-01  3.7115307469160808e-01  5.3541478524413744e-01  6.5526164999437286e-01  7.3633599436526365e-01  7.8781166649838208e-01  8.1922824637583114e-01  8.3870609037806809e-01  8.5234527264523463e-01  8.6422728601002974e-01  8.7663816939708950e-01  8.9034882539777505e-01  9.0488573677373429e-01  9.1874356561355086e-01  9.2950195630299404e-01  9.3391750102901250e-01  9.2998683472284571e-01  9.2874496035681542e-01  9.2259271386777109e-01  9.1265591829053272e-01  9.0104597344929682e-01  8.8929257520020677e-01  8.7793792311937824e-01  8.6626854422844657e-01  8.5203747451564427e-01  8.3118505476291837e-01  7.9762896248295301e-01  7.4332465476066878e-01  6.5905424402076918e-01  5.3662098755058774e-01  3.7275884746657340e-01  1.7458065184329422e-01  3.0353670978730948e-03  1.8705603177017788e-04  6.5806292980372493e-05  3.1598620075662425e-05  1.7215218517051313e-05  1.0903876934496026e-05  7.8140863458341845e-06  6.2163375694341276e-06  5.4997866612304142e-06  5.4340378748256258e-06  5.9466366937462470e-06  7.0777246675475287e-06  9.0275173654970031e-06  1.2378420742616427e-05  1.8842554232024668e-05  3.3332438673843031e-05  6.7999731179966343e-05  1.9212608335174438e-04  3.1654334443883595e-03  1.7480191665422926e-01  3.7190819624833976e-01  5.3518395495469051e-01  6.5742422163161196e-01  7.4174437914054736e-01  7.9619316685846886e-01  8.2989903526935860e-01  8.5087553069722499e-01  8.6520937140575782e-01  8.7697630553300854e-01  8.8843480143247067e-01  9.0029812347605065e-01  9.1201314440926329e-01  9.2203469225268997e-01  9.2823889974079110e-01  9.2949652214993661e-01  9.1930926830058279e-01  9.2260356141989741e-01  9.2483399786355047e-01  9.2285729701226205e-01  9.1746617543530196e-01  9.0995222734633063e-01  9.0090650750515078e-01  8.8969951378436074e-01  8.7413814702049519e-01  8.5018808907865528e-01  8.1183462841237319e-01  7.5136322403225930e-01  6.6062432718564157e-01  5.3395411971685336e-01  3.7266892984204009e-01  1.8911407015803797e-01  7.6046633560811691e-03  5.8587619630847971e-04  1.8550724226743391e-04  8.3253636548416202e-05  4.7516896534548454e-05  3.1851105105826349e-05  2.3575535585295491e-05  1.9064792658049487e-05  1.7046667031774029e-05  1.6982104156647673e-05  1.8682091874615065e-05  2.2245109014622983e-05  2.8136236497090343e-05  3.7562889415560424e-05  5.4086278646704340e-05  9.0507282815956722e-05  1.9468707446153617e-04  6.2099268718162107e-04  8.0112618603977934e-03  1.8909608283604737e-01  3.7134257922491437e-01  5.3198025008651773e-01  6.5853594497033030e-01  7.4945814942840372e-01  8.1020926712416286e-01  8.4882472603481374e-01  8.7298121191784150e-01  8.8869828064930390e-01  9.0002842425938501e-01  9.0917844433429451e-01  9.1678040890579815e-01  9.2223683277527091e-01  9.2424853328918188e-01  9.2202395461758757e-01  9.1872407563427794e-01  9.0557626099752664e-01  9.1268686856589365e-01  9.2287466590061451e-01  9.2926486888699633e-01  9.3087170905285810e-01  9.2838527513388414e-01  9.2227717184782088e-01  9.1194433774188011e-01  8.9524084828933082e-01  8.6818003399941879e-01  8.2487368667812733e-01  7.5806688941292422e-01  6.6091263377085341e-01  5.3049437230078134e-01  3.7216889911139134e-01  2.0079646344203381e-01  3.0296826093891928e-02  2.2223233697442994e-03  4.3396757554216249e-04  2.1232181384251678e-04  1.3496175729564542e-04  9.4608747644274073e-05  7.1036193150056213e-05  5.7806460214371876e-05  5.2015762638891738e-05  5.2186957729464221e-05  5.7762475411115267e-05  6.9046759081175347e-05  8.7359325052081783e-05  1.1551695037440208e-04  1.5976335335585493e-04  2.4009294999358192e-04  4.6652204778711273e-04  2.3256467515363403e-03  3.3431823205956286e-02  1.9992361529987759e-01  3.6970749882462017e-01  5.2747713504120153e-01  6.5802083962253111e-01  7.5563094455038937e-01  8.2295678394271266e-01  8.6670874614983751e-01  8.9410448120195785e-01  9.1104401170254234e-01  9.2153810833038619e-01  9.2775036465997873e-01  9.3029028865009689e-01  9.2868643706493392e-01  9.2225379845429445e-01  9.1200139049557605e-01  9.0485339118950592e-01  8.9119390932101694e-01  9.0110825680158713e-01  9.1750677774004696e-01  9.3088771955929517e-01  9.3870781683183135e-01  9.4096466960799829e-01  9.3790744555821393e-01  9.2890800499366710e-01  9.1186386079776882e-01  8.8286895813240762e-01  8.3621240046171386e-01  7.6510894314623135e-01  6.6383362980929139e-01  5.3159260701152322e-01  3.7666629234802201e-01  2.1671626392170409e-01  7.1627779516604054e-02  1.6941582338825235e-03  8.5836208362288021e-04  5.6066041407404083e-04  3.7857672845466241e-04  2.6722316754071185e-04  2.0009215755468685e-04  1.6273069435940484e-04  1.4700684322611345e-04  1.4850429882574896e-04  1.6555796536465563e-04  1.9919195032961680e-04  2.5363324181018284e-04  3.3731617747988403e-04  4.6482998112586338e-04  6.6133981278585071e-04  9.7220637302413500e-04  1.7758640138480285e-03  7.1451969803553492e-02  2.1370202856159701e-01  3.7230165134639709e-01  5.2706666748564357e-01  6.5989287389686035e-01  7.6203973731456165e-01  8.3398766873825925e-01  8.8132453403700883e-01  9.1081440001501457e-01  9.2819475336349200e-01  9.3740398405426939e-01  9.4056568665419804e-01  9.3831733096087400e-01  9.3041715880056342e-01  9.1688941596650708e-01  9.0033099593538268e-01  8.9033619342750248e-01  8.7765067737066682e-01  8.8939797262940512e-01  9.1001995759141696e-01  9.2840920872574384e-01  9.4095786372520640e-01  9.4712237659767740e-01  9.4695129421408897e-01  9.3979285379683897e-01  9.2361144159445374e-01  8.9463921934551682e-01  8.4740958990564019e-01  7.7557519974696176e-01  6.7416245727033786e-01  5.4349718220066834e-01  3.9320025224059574e-01  2.4224320544426109e-01  1.1205826032677436e-01  1.6416794105808537e-02  3.0374578383165775e-03  1.5722866172983047e-03  1.0237153718824898e-03  7.0691170938917572e-04  5.2243267365431872e-04  4.2288055377109196e-04  3.8296055946107036e-04  3.8956846202356466e-04  4.3797834121560183e-04  5.3155017625979495e-04  6.8385426358386786e-04  9.2317159786748206e-04  1.3025238182667314e-03  1.9257529889944371e-03  3.4172187349512163e-03  1.9020140000743667e-02  1.0905064417826027e-01  2.3652821015894826e-01  3.8666095086677310e-01  5.3743095886253189e-01  6.6926358757698190e-01  7.7200705891048682e-01  8.4502037890714554e-01  8.9316747037196342e-01  9.2280149145488588e-01  9.3943074258944215e-01  9.4685902768922925e-01  9.4714057906228977e-01  9.4093463162491076e-01  9.2820577965997353e-01  9.0953944265085729e-01  8.8863620175424074e-01  8.7675285100592570e-01  8.6540553442508439e-01  8.7809566581177390e-01  9.0100054057916001e-01  9.2229125328068273e-01  9.3785229430947914e-01  9.4687440647769061e-01  9.4931825099184985e-01  9.4455429342778219e-01  9.3065379579301366e-01  9.0405536401815989e-01  8.5962366461887607e-01  7.9145108506053241e-01  6.9498291320395333e-01  5.7066254297019448e-01  4.2763640956333598e-01  2.8381968763077337e-01  1.5930691607981229e-01  6.6031685502254509e-02  1.2367878799549217e-02  4.5152462158056256e-03  2.6266705644016914e-03  1.7478783191053264e-03  1.2665976728269547e-03  1.0171031216386773e-03  9.2207569272428327e-04  9.4476855979136378e-04  1.0727450026739610e-03  1.3165614779280827e-03  1.7181956098286802e-03  2.3716269643055845e-03  3.4889404016536507e-03  5.7842933330741753e-03  1.7465852947848953e-02  6.6982192761195603e-02  1.5450199220237709e-01  2.7640775094348624e-01  4.1982387969752910e-01  5.6381856998511881e-01  6.8972101138253061e-01  7.8782684368147315e-01  8.5740574115427959e-01  9.0293564664660353e-01  9.3034746762011356e-01  9.4481845960443456e-01  9.4993426398315417e-01  9.4762635548734742e-01  9.3852032415423869e-01  9.2267035979975975e-01  9.0095024910948562e-01  8.7761693782690930e-01  8.6472181368194900e-01  8.5368049262696855e-01  8.6648175232916858e-01  8.8981135460576044e-01  9.1191802689939438e-01  9.2873927280587698e-01  9.3952705393606895e-01  9.4431097666078312e-01  9.4254014749229098e-01  9.3241027877034299e-01  9.1059540735469979e-01  8.7234957066147767e-01  8.1223179230446729e-01  7.2591736597963419e-01  6.1327872373723524e-01  4.8161528187263603e-01  3.4604640791937025e-01  2.2437814181002946e-01  1.2852742729666888e-01  5.9935369387566453e-02  1.7706366489747299e-02  6.7899990712035844e-03  4.1081670907781396e-03  2.8812520614126254e-03  2.2820504353138174e-03  2.0660458674732333e-03  2.1327425499759640e-03  2.4514434496727493e-03  3.0563519140676047e-03  4.0830014106877366e-03  5.9170683371933411e-03  9.9034054169219992e-03  2.7992963207261821e-02  6.7674217982145735e-02  1.2964578557444500e-01  2.2034346917037517e-01  3.3937361707597835e-01  4.7448058300932927e-01  6.0707725084652264e-01  7.2126926235531741e-01  8.0921616207729608e-01  8.7078303148471792e-01  9.1022499144126034e-01  9.3299332879738095e-01  9.4384788918479212e-01  9.4610238747252140e-01  9.4152735000373666e-01  9.3064375166400537e-01  9.1343209803871861e-01  8.9073010386321283e-01  8.6680162696539820e-01  8.5371299038580772e-01  8.4019245370444406e-01  8.5230164643888651e-01  8.7425131035160941e-01  8.9513102407520106e-01  9.1149109271767070e-01  9.2299622291113548e-01  9.2991833536424884e-01  9.3182092700358055e-01  9.2697471144604926e-01  9.1221690426844437e-01  8.8314486949409088e-01  8.3476354984419687e-01  7.6290266558664033e-01  6.6657612635447550e-01  5.5057224302239782e-01  4.2618773372829527e-01  3.0792956796844767e-01  2.0713708524666244e-01  1.2742767092850846e-01  6.6618887300814375e-02  2.5367375287790477e-02  1.0010707326455951e-02  6.3363998795490277e-03  4.8549718253950644e-03  4.3629153822794782e-03  4.5389900198728704e-03  5.3099949189601226e-03  6.8166853871936394e-03  9.7102459003312203e-03  1.7159482836814857e-02  4.1322687186467796e-02  8.2678920061050182e-02  1.3823175719298772e-01  2.1185390593933662e-01  3.0763725403271042e-01  4.2284108459889197e-01  5.4612996965619831e-01  6.6244607069365291e-01  7.5983605816316557e-01  8.3302518552551175e-01  8.8274380957032172e-01  9.1306600485212819e-01  9.2895119006276405e-01  9.3475804233146653e-01  9.3357226405332150e-01  9.2702689418995166e-01  9.1548308754300234e-01  8.9866536128584695e-01  8.7702638393029186e-01  8.5429034014447525e-01  8.4179883739930084e-01  8.2087011379166774e-01  8.3149143219850308e-01  8.5028419095922392e-01  8.6793995940885371e-01  8.8218603119173034e-01  8.9347100935696067e-01  9.0249297222184588e-01  9.0893189582920486e-01  9.1098963875891925e-01  9.0545160658500534e-01  8.8805629793187191e-01  8.5412303437193182e-01  7.9959712680272133e-01  7.2267392918531703e-01  6.2566351689959754e-01  5.1586263774354335e-01  4.0392536576670512e-01  2.9986385557074335e-01  2.0948309900409404e-01  1.3419530999489457e-01  7.4087970378861320e-02  3.2552884651945543e-02  1.4833524125446253e-02  1.0167047721849924e-02  8.8888471102245258e-03  9.3237411989110577e-03  1.1288329248397254e-02  1.5723471178809244e-02  2.7328290553416922e-02  5.5094739841371705e-02  9.9411880969586738e-02  1.5661120611257925e-01  2.2649228393471305e-01  3.1073317237756620e-01  4.0932314106354123e-01  5.1736247640147182e-01  6.2505409825951574e-01  7.2143185384014963e-01  7.9870117308101052e-01  8.5412965330817125e-01  8.8926096821292933e-01  9.0801087989611962e-01  9.1496306938771632e-01  9.1425870980063406e-01  9.0894509807231760e-01  9.0063218585669891e-01  8.8949455608549288e-01  8.7480458227985980e-01  8.5625969068285079e-01  8.3649288879575501e-01  8.2538625635521767e-01  7.8962035522999718e-01  7.9797390338995799e-01  8.1190854424103931e-01  8.2447677809727027e-01  8.3512929355761012e-01  8.4547539289593154e-01  8.5683957201602212e-01  8.6900057430698241e-01  8.7986111921541355e-01  8.8579837701319541e-01  8.8233223353669676e-01  8.6484051636807213e-01  8.2932462525510164e-01  7.7339026533442323e-01  6.9740099733421967e-01  6.0523726010125234e-01  5.0378938713513655e-01  4.0095826425177816e-01  3.0334068048040175e-01  2.1527944368669841e-01  1.3964136325676182e-01  7.9487307595497117e-02  3.9753247348562656e-02  2.2578787524775587e-02  1.8250076305892298e-02  1.9263617279012640e-02  2.4981015059995254e-02  3.9413831431882977e-02  6.8990522995612397e-02  1.1510386476986745e-01  1.7511844962755388e-01  2.4669165598412934e-01  3.2842308787598767e-01  4.1892560386504291e-01  5.1522382274497291e-01  6.1164879871372857e-01  7.0061504294716903e-01  7.7505420263559111e-01  8.3069045816537213e-01  8.6678024160211542e-01  8.8544961442806303e-01  8.9052398141864075e-01  8.8647706614798816e-01  8.7759319342400155e-01  8.6722171322737118e-01  8.5714984450634868e-01  8.4735382557309535e-01  8.3643662319090428e-01  8.2295726888017429e-01  8.0791131083397882e-01  7.9897816818707112e-01  7.3830680501337709e-01  7.4372168691704177e-01  7.5144441554889152e-01  7.5754569114609138e-01  7.6361418340128695e-01  7.7273454553805021e-01  7.8707631473105488e-01  8.0653042735904301e-01  8.2845094387639906e-01  8.4837441753074683e-01  8.6114149006204599e-01  8.6183974697696997e-01  8.4641256955641087e-01  8.1213469183090214e-01  7.5814122157968378e-01  6.8589014067942100e-01  5.9916745212789835e-01  5.0338602733203075e-01  4.0448976936616449e-01  3.0815298810984926e-01  2.1962936347140111e-01  1.4401984728320796e-01  8.6643682702694472e-02  5.2243279307813598e-02  3.9594544174044302e-02  4.1506672226330289e-02  5.5705599845653354e-02  8.5106589550863421e-02  1.3136230765227819e-01  1.9286627885993102e-01  2.6658336830329676e-01  3.4918497586012931e-01  4.3733920720940400e-01  5.2750062245692830e-01  6.1542818520811549e-01  6.9606785085054435e-01  7.6428500532430910e-01  8.1612046566596463e-01  8.4974625641910928e-01  8.6566238474979040e-01  8.6632411994168101e-01  8.5560499252017286e-01  8.3825083611575868e-01  8.1917818575028001e-01  8.0247695826989385e-01  7.9034024008453085e-01  7.8250273491472266e-01  7.7665952176676456e-01  7.6989514643070101e-01  7.6110963581665170e-01  7.5508107494261878e-01  6.5732501872557858e-01  6.5953840516233686e-01  6.6078906915545466e-01  6.6039416044359445e-01  6.6207279809554131e-01  6.7047863125859597e-01  6.8884356999919960e-01  7.1731409411071423e-01  7.5258774251841509e-01  7.8901959895779628e-01  8.2034458696800927e-01  8.4099067094600788e-01  8.4665672317896934e-01  8.3443380335959116e-01  8.0284345286266967e-01  7.5194151944503507e-01  6.8339675767411845e-01  6.0040467413599130e-01  5.0744672267443447e-01  4.1003885280634966e-01  3.1453411302643897e-01  2.2787756954505622e-01  1.5721803487619232e-01  1.0911462862365970e-01  8.7130536692012914e-02  8.9467501628157559e-02  1.1281145493068370e-01  1.5538606567809626e-01  2.1506417298356229e-01  2.8841545450174882e-01  3.7107085723084493e-01  4.5828815603366790e-01  5.4541577414386555e-01  6.2809019595046045e-01  7.0222547197497398e-01  7.6408325563308876e-01  8.1060761780943880e-01  8.3988829113411412e-01  8.5148179186946671e-01  8.4649756921357133e-01  8.2757261938632132e-01  7.9883795095820231e-01  7.6573315127127906e-01  7.3430477599377442e-01  7.0977953210017986e-01  6.9487366664907602e-01  6.8891528976659644e-01  6.8846112212789001e-01  6.8900412009356216e-01  6.8722645737679311e-01  6.8456249602185226e-01  5.3737482805103620e-01  5.3722985511831345e-01  5.3429875659535919e-01  5.3018064832564327e-01  5.2989401536889436e-01  5.3934910149182747e-01  5.6298960952207178e-01  6.0161596516375115e-01  6.5156042723091612e-01  7.0604000947096490e-01  7.5753588018282858e-01  7.9956027412794395e-01  8.2731527666026983e-01  8.3763609172072928e-01  8.2873093131055042e-01  7.9999629282929896e-01  7.5196515803886610e-01  6.8636150707431520e-01  6.0624534081000248e-01  5.1621979332627999e-01  4.2256971368024676e-01  3.3310974169063540e-01  2.5658733817002416e-01  2.0154302606846311e-01  1.7424604330198640e-01  1.7620961737572041e-01  2.0449092322505630e-01  2.5451476917330640e-01  3.2131485989234015e-01  3.9945282267647580e-01  4.8313735250144574e-01  5.6670862483794215e-01  6.4513685662487064e-01  7.1426494921599926e-01  7.7079681029071601e-01  8.1221869425353721e-01  8.3680586763645204e-01  8.4372203548622482e-01  8.3315589530120260e-01  8.0649736630618751e-01  7.6660589253326417e-01  7.1812159650586149e-01  6.6749902772852776e-01  6.2219606015788165e-01  5.8867568192476105e-01  5.6995618616881716e-01  5.6454149545005194e-01  5.6768375242749547e-01  5.7366871556680454e-01  5.7764404155644833e-01  5.7801752401333362e-01  3.7267568148026514e-01  3.7348375998812700e-01  3.7322174550568543e-01  3.7220487074511061e-01  3.7540223265933054e-01  3.8921169987432530e-01  4.1913959226615410e-01  4.6736723019964371e-01  5.3078187072025973e-01  6.0220716609945912e-01  6.7332295268734177e-01  7.3680301263190662e-01  7.8710774243831039e-01  8.2046980059874863e-01  8.3462834427610566e-01  8.2857119886037911e-01  8.0235667079961959e-01  7.5706480434293921e-01  6.9494551197246135e-01  6.1976786235532266e-01  5.3721200189800267e-01  4.5498177938293494e-01  3.8229301454042169e-01  3.2850366582000645e-01  3.0084987003984326e-01  3.0210356110996256e-01  3.3016229335660291e-01  3.7989958898374482e-01  4.4498268951339320e-01  5.1872010690787096e-01  5.9458742834043088e-01  6.6675380036159260e-01  7.3045478089929561e-01  7.8206847260804158e-01  8.1896203697725700e-01  8.3929747280658495e-01  8.4194399899666406e-01  8.2653222006574512e-01  7.9362130221465121e-01  7.4496859947998728e-01  6.8391781104751459e-01  6.1582491722159727e-01  5.4814946119696517e-01  4.8950031663669119e-01  4.4707809616221411e-01  4.2344416390458822e-01  4.1552241122723083e-01  4.1718359489273760e-01  4.2258792098991149e-01  4.2726190719395907e-01  4.2868770637537218e-01  1.6285840948604924e-01  1.7532522470741663e-01  1.8972354975785796e-01  2.0106943049667966e-01  2.1599267397456062e-01  2.3891300139426294e-01  2.7541050198356770e-01  3.3026614233397705e-01  4.0237803756251500e-01  4.8564669151998480e-01  5.7220402992089059e-01  6.5456254248823198e-01  7.2641601868942907e-01  7.8285504323192068e-01  8.2049570426112584e-01  8.3755238209312077e-01  8.3373351771842086e-01  8.1002064927471584e-01  7.6855716579838484e-01  7.1280722232157168e-01  6.4790418375185099e-01  5.8085268422969649e-01  5.2013258883604518e-01  4.7438929052871248e-01  4.5036395056257361e-01  4.5099465880328549e-01  4.7495227511351068e-01  5.1774263752819760e-01  5.7322876901410580e-01  6.3479297515968358e-01  6.9614087849958117e-01  7.5183619891051645e-01  7.9753176367961043e-01  8.2991619120406024e-01  8.4652753640120226e-01  8.4562965248437505e-01  8.2626602003569272e-01  7.8846483121509769e-01  7.3347472738449238e-01  6.6394869483829189e-01  5.8412300486630908e-01  5.0003898027490123e-01  4.1954372480604696e-01  3.5132614256469014e-01  3.0212117690825546e-01  2.7281530594211928e-01  2.5782939104926111e-01  2.4951571761054542e-01  2.4379909488642842e-01  2.3864241180543946e-01  2.3653649099432927e-01  9.6475102786686205e-04  3.1393755764933425e-03  7.7478185755527999e-03  3.0463368146024003e-02  7.1153373112235602e-02  1.0933899542601638e-01  1.5158629035503346e-01  2.0828197561929629e-01  2.8154470729078263e-01  3.6801094284241992e-01  4.6205856340513946e-01  5.5742472078508476e-01  6.4758470893802800e-01  7.2607535997922290e