<?xml version="1.0"?>
<VTKFile type="UnstructuredGrid"  version="0.1"  >
<UnstructuredGrid>
<Piece  NumberOfPoints="10201" NumberOfCells="20000">
<Points>
<DataArray  type="Float64"  NumberOfComponents="3"  format="ascii">0 0 0  0.1 0 0  0.2 0 0  0.3 0 0  0.4 0 0  0.5 0 0  0.6 0 0  0.7 0 0  0.8 0 0  0.9 0 0  1 0 0  1.1 0 0  1.2 0 0  1.3 0 0  1.4 0 0  1.5 0 0  1.6 0 0  1.7 0 0  1.8 0 0  1.9 0 0  2 0 0  2.1 0 0  2.2 0 0  2.3 0 0  2.4 0 0  2.5 0 0  2.6 0 0  2.7 0 0  2.8 0 0  2.9 0 0  3 0 0  3.1 0 0  3.2 0 0  3.3 0 0  3.4 0 0  3.5 0 0  3.6 0 0  3.7 0 0  3.8 0 0  3.9 0 0  4 0 0  4.1 0 0  4.2 0 0  4.3 0 0  4.4 0 0  4.5 0 0  4.6 0 0  4.7 0 0  4.8 0 0  4.9 0 0  5 0 0  5.1 0 0  5.2 0 0  5.3 0 0  5.4 0 0  5.5 0 0  5.6 0 0  5.7 0 0  5.8 0 0  5.9 0 0  6 0 0  6.1 0 0  6.2 0 0  6.3 0 0  6.4 0 0  6.5 0 0  6.6 0 0  6.7 0 0  6.8 0 0  6.9 0 0  7 0 0  7.1 0 0  7.2 0 0  7.3 0 0  7.4 0 0  7.5 0 0  7.6 0 0  7.7 0 0  7.8 0 0  7.9 0 0  8 0 0  8.1 0 0  8.199999999999999 0 0  8.300000000000001 0 0  8.4 0 0  8.5 0 0  8.6 0 0  8.699999999999999 0 0  8.800000000000001 0 0  8.9 0 0  9 0 0  9.1 0 0  9.199999999999999 0 0  9.300000000000001 0 0  9.4 0 0  9.5 0 0  9.6 0 0  9.699999999999999 0 0  9.800000000000001 0 0  9.9 0 0  10 0 0  0 0.1 0  0.1 0.1 0  0.2 0.1 0  0.3 0.1 0  0.4 0.1 0  0.5 0.1 0  0.6 0.1 0  0.7 0.1 0  0.8 0.1 0  0.9 0.1 0  1 0.1 0  1.1 0.1 0  1.2 0.1 0  1.3 0.1 0  1.4 0.1 0  1.5 0.1 0  1.6 0.1 0  1.7 0.1 0  1.8 0.1 0  1.9 0.1 0  2 0.1 0  2.1 0.1 0  2.2 0.1 0  2.3 0.1 0  2.4 0.1 0  2.5 0.1 0  2.6 0.1 0  2.7 0.1 0  2.8 0.1 0  2.9 0.1 0  3 0.1 0  3.1 0.1 0  3.2 0.1 0  3.3 0.1 0  3.4 0.1 0  3.5 0.1 0  3.6 0.1 0  3.7 0.1 0  3.8 0.1 0  3.9 0.1 0  4 0.1 0  4.1 0.1 0  4.2 0.1 0  4.3 0.1 0  4.4 0.1 0  4.5 0.1 0  4.6 0.1 0  4.7 0.1 0  4.8 0.1 0  4.9 0.1 0  5 0.1 0  5.1 0.1 0  5.2 0.1 0  5.3 0.1 0  5.4 0.1 0  5.5 0.1 0  5.6 0.1 0  5.7 0.1 0  5.8 0.1 0  5.9 0.1 0  6 0.1 0  6.1 0.1 0  6.2 0.1 0  6.3 0.1 0  6.4 0.1 0  6.5 0.1 0  6.6 0.1 0  6.7 0.1 0  6.8 0.1 0  6.9 0.1 0  7 0.1 0  7.1 0.1 0  7.2 0.1 0  7.3 0.1 0  7.4 0.1 0  7.5 0.1 0  7.6 0.1 0  7.7 0.1 0  7.8 0.1 0  7.9 0.1 0  8 0.1 0  8.1 0.1 0  8.199999999999999 0.1 0  8.300000000000001 0.1 0  8.4 0.1 0  8.5 0.1 0  8.6 0.1 0  8.699999999999999 0.1 0  8.800000000000001 0.1 0  8.9 0.1 0  9 0.1 0  9.1 0.1 0  9.199999999999999 0.1 0  9.300000000000001 0.1 0  9.4 0.1 0  9.5 0.1 0  9.6 0.1 0  9.699999999999999 0.1 0  9.800000000000001 0.1 0  9.9 0.1 0  10 0.1 0  0 0.2 0  0.1 0.2 0  0.2 0.2 0  0.3 0.2 0  0.4 0.2 0  0.5 0.2 0  0.6 0.2 0  0.7 0.2 0  0.8 0.2 0  0.9 0.2 0  1 0.2 0  1.1 0.2 0  1.2 0.2 0  1.3 0.2 0  1.4 0.2 0  1.5 0.2 0  1.6 0.2 0  1.7 0.2 0  1.8 0.2 0  1.9 0.2 0  2 0.2 0  2.1 0.2 0  2.2 0.2 0  2.3 0.2 0  2.4 0.2 0  2.5 0.2 0  2.6 0.2 0  2.7 0.2 0  2.8 0.2 0  2.9 0.2 0  3 0.2 0  3.1 0.2 0  3.2 0.2 0  3.3 0.2 0  3.4 0.2 0  3.5 0.2 0  3.6 0.2 0  3.7 0.2 0  3.8 0.2 0  3.9 0.2 0  4 0.2 0  4.1 0.2 0  4.2 0.2 0  4.3 0.2 0  4.4 0.2 0  4.5 0.2 0  4.6 0.2 0  4.7 0.2 0  4.8 0.2 0  4.9 0.2 0  5 0.2 0  5.1 0.2 0  5.2 0.2 0  5.3 0.2 0  5.4 0.2 0  5.5 0.2 0  5.6 0.2 0  5.7 0.2 0  5.8 0.2 0  5.9 0.2 0  6 0.2 0  6.1 0.2 0  6.2 0.2 0  6.3 0.2 0  6.4 0.2 0  6.5 0.2 0  6.6 0.2 0  6.7 0.2 0  6.8 0.2 0  6.9 0.2 0  7 0.2 0  7.1 0.2 0  7.2 0.2 0  7.3 0.2 0  7.4 0.2 0  7.5 0.2 0  7.6 0.2 0  7.7 0.2 0  7.8 0.2 0  7.9 0.2 0  8 0.2 0  8.1 0.2 0  8.199999999999999 0.2 0  8.300000000000001 0.2 0  8.4 0.2 0  8.5 0.2 0  8.6 0.2 0  8.699999999999999 0.2 0  8.800000000000001 0.2 0  8.9 0.2 0  9 0.2 0  9.1 0.2 0  9.199999999999999 0.2 0  9.300000000000001 0.2 0  9.4 0.2 0  9.5 0.2 0  9.6 0.2 0  9.699999999999999 0.2 0  9.800000000000001 0.2 0  9.9 0.2 0  10 0.2 0  0 0.3 0  0.1 0.3 0  0.2 0.3 0  0.3 0.3 0  0.4 0.3 0  0.5 0.3 0  0.6 0.3 0  0.7 0.3 0  0.8 0.3 0  0.9 0.3 0  1 0.3 0  1.1 0.3 0  1.2 0.3 0  1.3 0.3 0  1.4 0.3 0  1.5 0.3 0  1.6 0.3 0  1.7 0.3 0  1.8 0.3 0  1.9 0.3 0  2 0.3 0  2.1 0.3 0  2.2 0.3 0  2.3 0.3 0  2.4 0.3 0  2.5 0.3 0  2.6 0.3 0  2.7 0.3 0  2.8 0.3 0  2.9 0.3 0  3 0.3 0  3.1 0.3 0  3.2 0.3 0  3.3 0.3 0  3.4 0.3 0  3.5 0.3 0  3.6 0.3 0  3.7 0.3 0  3.8 0.3 0  3.9 0.3 0  4 0.3 0  4.1 0.3 0  4.2 0.3 0  4.3 0.3 0  4.4 0.3 0  4.5 0.3 0  4.6 0.3 0  4.7 0.3 0  4.8 0.3 0  4.9 0.3 0  5 0.3 0  5.1 0.3 0  5.2 0.3 0  5.3 0.3 0  5.4 0.3 0  5.5 0.3 0  5.6 0.3 0  5.7 0.3 0  5.8 0.3 0  5.9 0.3 0  6 0.3 0  6.1 0.3 0  6.2 0.3 0  6.3 0.3 0  6.4 0.3 0  6.5 0.3 0  6.6 0.3 0  6.7 0.3 0  6.8 0.3 0  6.9 0.3 0  7 0.3 0  7.1 0.3 0  7.2 0.3 0  7.3 0.3 0  7.4 0.3 0  7.5 0.3 0  7.6 0.3 0  7.7 0.3 0  7.8 0.3 0  7.9 0.3 0  8 0.3 0  8.1 0.3 0  8.199999999999999 0.3 0  8.300000000000001 0.3 0  8.4 0.3 0  8.5 0.3 0  8.6 0.3 0  8.699999999999999 0.3 0  8.800000000000001 0.3 0  8.9 0.3 0  9 0.3 0  9.1 0.3 0  9.199999999999999 0.3 0  9.300000000000001 0.3 0  9.4 0.3 0  9.5 0.3 0  9.6 0.3 0  9.699999999999999 0.3 0  9.800000000000001 0.3 0  9.9 0.3 0  10 0.3 0  0 0.4 0  0.1 0.4 0  0.2 0.4 0  0.3 0.4 0  0.4 0.4 0  0.5 0.4 0  0.6 0.4 0  0.7 0.4 0  0.8 0.4 0  0.9 0.4 0  1 0.4 0  1.1 0.4 0  1.2 0.4 0  1.3 0.4 0  1.4 0.4 0  1.5 0.4 0  1.6 0.4 0  1.7 0.4 0  1.8 0.4 0  1.9 0.4 0  2 0.4 0  2.1 0.4 0  2.2 0.4 0  2.3 0.4 0  2.4 0.4 0  2.5 0.4 0  2.6 0.4 0  2.7 0.4 0  2.8 0.4 0  2.9 0.4 0  3 0.4 0  3.1 0.4 0  3.2 0.4 0  3.3 0.4 0  3.4 0.4 0  3.5 0.4 0  3.6 0.4 0  3.7 0.4 0  3.8 0.4 0  3.9 0.4 0  4 0.4 0  4.1 0.4 0  4.2 0.4 0  4.3 0.4 0  4.4 0.4 0  4.5 0.4 0  4.6 0.4 0  4.7 0.4 0  4.8 0.4 0  4.9 0.4 0  5 0.4 0  5.1 0.4 0  5.2 0.4 0  5.3 0.4 0  5.4 0.4 0  5.5 0.4 0  5.6 0.4 0  5.7 0.4 0  5.8 0.4 0  5.9 0.4 0  6 0.4 0  6.1 0.4 0  6.2 0.4 0  6.3 0.4 0  6.4 0.4 0  6.5 0.4 0  6.6 0.4 0  6.7 0.4 0  6.8 0.4 0  6.9 0.4 0  7 0.4 0  7.1 0.4 0  7.2 0.4 0  7.3 0.4 0  7.4 0.4 0  7.5 0.4 0  7.6 0.4 0  7.7 0.4 0  7.8 0.4 0  7.9 0.4 0  8 0.4 0  8.1 0.4 0  8.199999999999999 0.4 0  8.300000000000001 0.4 0  8.4 0.4 0  8.5 0.4 0  8.6 0.4 0  8.699999999999999 0.4 0  8.800000000000001 0.4 0  8.9 0.4 0  9 0.4 0  9.1 0.4 0  9.199999999999999 0.4 0  9.300000000000001 0.4 0  9.4 0.4 0  9.5 0.4 0  9.6 0.4 0  9.699999999999999 0.4 0  9.800000000000001 0.4 0  9.9 0.4 0  10 0.4 0  0 0.5 0  0.1 0.5 0  0.2 0.5 0  0.3 0.5 0  0.4 0.5 0  0.5 0.5 0  0.6 0.5 0  0.7 0.5 0  0.8 0.5 0  0.9 0.5 0  1 0.5 0  1.1 0.5 0  1.2 0.5 0  1.3 0.5 0  1.4 0.5 0  1.5 0.5 0  1.6 0.5 0  1.7 0.5 0  1.8 0.5 0  1.9 0.5 0  2 0.5 0  2.1 0.5 0  2.2 0.5 0  2.3 0.5 0  2.4 0.5 0  2.5 0.5 0  2.6 0.5 0  2.7 0.5 0  2.8 0.5 0  2.9 0.5 0  3 0.5 0  3.1 0.5 0  3.2 0.5 0  3.3 0.5 0  3.4 0.5 0  3.5 0.5 0  3.6 0.5 0  3.7 0.5 0  3.8 0.5 0  3.9 0.5 0  4 0.5 0  4.1 0.5 0  4.2 0.5 0  4.3 0.5 0  4.4 0.5 0  4.5 0.5 0  4.6 0.5 0  4.7 0.5 0  4.8 0.5 0  4.9 0.5 0  5 0.5 0  5.1 0.5 0  5.2 0.5 0  5.3 0.5 0  5.4 0.5 0  5.5 0.5 0  5.6 0.5 0  5.7 0.5 0  5.8 0.5 0  5.9 0.5 0  6 0.5 0  6.1 0.5 0  6.2 0.5 0  6.3 0.5 0  6.4 0.5 0  6.5 0.5 0  6.6 0.5 0  6.7 0.5 0  6.8 0.5 0  6.9 0.5 0  7 0.5 0  7.1 0.5 0  7.2 0.5 0  7.3 0.5 0  7.4 0.5 0  7.5 0.5 0  7.6 0.5 0  7.7 0.5 0  7.8 0.5 0  7.9 0.5 0  8 0.5 0  8.1 0.5 0  8.199999999999999 0.5 0  8.300000000000001 0.5 0  8.4 0.5 0  8.5 0.5 0  8.6 0.5 0  8.699999999999999 0.5 0  8.800000000000001 0.5 0  8.9 0.5 0  9 0.5 0  9.1 0.5 0  9.199999999999999 0.5 0  9.300000000000001 0.5 0  9.4 0.5 0  9.5 0.5 0  9.6 0.5 0  9.699999999999999 0.5 0  9.800000000000001 0.5 0  9.9 0.5 0  10 0.5 0  0 0.6 0  0.1 0.6 0  0.2 0.6 0  0.3 0.6 0  0.4 0.6 0  0.5 0.6 0  0.6 0.6 0  0.7 0.6 0  0.8 0.6 0  0.9 0.6 0  1 0.6 0  1.1 0.6 0  1.2 0.6 0  1.3 0.6 0  1.4 0.6 0  1.5 0.6 0  1.6 0.6 0  1.7 0.6 0  1.8 0.6 0  1.9 0.6 0  2 0.6 0  2.1 0.6 0  2.2 0.6 0  2.3 0.6 0  2.4 0.6 0  2.5 0.6 0  2.6 0.6 0  2.7 0.6 0  2.8 0.6 0  2.9 0.6 0  3 0.6 0  3.1 0.6 0  3.2 0.6 0  3.3 0.6 0  3.4 0.6 0  3.5 0.6 0  3.6 0.6 0  3.7 0.6 0  3.8 0.6 0  3.9 0.6 0  4 0.6 0  4.1 0.6 0  4.2 0.6 0  4.3 0.6 0  4.4 0.6 0  4.5 0.6 0  4.6 0.6 0  4.7 0.6 0  4.8 0.6 0  4.9 0.6 0  5 0.6 0  5.1 0.6 0  5.2 0.6 0  5.3 0.6 0  5.4 0.6 0  5.5 0.6 0  5.6 0.6 0  5.7 0.6 0  5.8 0.6 0  5.9 0.6 0  6 0.6 0  6.1 0.6 0  6.2 0.6 0  6.3 0.6 0  6.4 0.6 0  6.5 0.6 0  6.6 0.6 0  6.7 0.6 0  6.8 0.6 0  6.9 0.6 0  7 0.6 0  7.1 0.6 0  7.2 0.6 0  7.3 0.6 0  7.4 0.6 0  7.5 0.6 0  7.6 0.6 0  7.7 0.6 0  7.8 0.6 0  7.9 0.6 0  8 0.6 0  8.1 0.6 0  8.199999999999999 0.6 0  8.300000000000001 0.6 0  8.4 0.6 0  8.5 0.6 0  8.6 0.6 0  8.699999999999999 0.6 0  8.800000000000001 0.6 0  8.9 0.6 0  9 0.6 0  9.1 0.6 0  9.199999999999999 0.6 0  9.300000000000001 0.6 0  9.4 0.6 0  9.5 0.6 0  9.6 0.6 0  9.699999999999999 0.6 0  9.800000000000001 0.6 0  9.9 0.6 0  10 0.6 0  0 0.7 0  0.1 0.7 0  0.2 0.7 0  0.3 0.7 0  0.4 0.7 0  0.5 0.7 0  0.6 0.7 0  0.7 0.7 0  0.8 0.7 0  0.9 0.7 0  1 0.7 0  1.1 0.7 0  1.2 0.7 0  1.3 0.7 0  1.4 0.7 0  1.5 0.7 0  1.6 0.7 0  1.7 0.7 0  1.8 0.7 0  1.9 0.7 0  2 0.7 0  2.1 0.7 0  2.2 0.7 0  2.3 0.7 0  2.4 0.7 0  2.5 0.7 0  2.6 0.7 0  2.7 0.7 0  2.8 0.7 0  2.9 0.7 0  3 0.7 0  3.1 0.7 0  3.2 0.7 0  3.3 0.7 0  3.4 0.7 0  3.5 0.7 0  3.6 0.7 0  3.7 0.7 0  3.8 0.7 0  3.9 0.7 0  4 0.7 0  4.1 0.7 0  4.2 0.7 0  4.3 0.7 0  4.4 0.7 0  4.5 0.7 0  4.6 0.7 0  4.7 0.7 0  4.8 0.7 0  4.9 0.7 0  5 0.7 0  5.1 0.7 0  5.2 0.7 0  5.3 0.7 0  5.4 0.7 0  5.5 0.7 0  5.6 0.7 0  5.7 0.7 0  5.8 0.7 0  5.9 0.7 0  6 0.7 0  6.1 0.7 0  6.2 0.7 0  6.3 0.7 0  6.4 0.7 0  6.5 0.7 0  6.6 0.7 0  6.7 0.7 0  6.8 0.7 0  6.9 0.7 0  7 0.7 0  7.1 0.7 0  7.2 0.7 0  7.3 0.7 0  7.4 0.7 0  7.5 0.7 0  7.6 0.7 0  7.7 0.7 0  7.8 0.7 0  7.9 0.7 0  8 0.7 0  8.1 0.7 0  8.199999999999999 0.7 0  8.300000000000001 0.7 0  8.4 0.7 0  8.5 0.7 0  8.6 0.7 0  8.699999999999999 0.7 0  8.800000000000001 0.7 0  8.9 0.7 0  9 0.7 0  9.1 0.7 0  9.199999999999999 0.7 0  9.300000000000001 0.7 0  9.4 0.7 0  9.5 0.7 0  9.6 0.7 0  9.699999999999999 0.7 0  9.800000000000001 0.7 0  9.9 0.7 0  10 0.7 0  0 0.8 0  0.1 0.8 0  0.2 0.8 0  0.3 0.8 0  0.4 0.8 0  0.5 0.8 0  0.6 0.8 0  0.7 0.8 0  0.8 0.8 0  0.9 0.8 0  1 0.8 0  1.1 0.8 0  1.2 0.8 0  1.3 0.8 0  1.4 0.8 0  1.5 0.8 0  1.6 0.8 0  1.7 0.8 0  1.8 0.8 0  1.9 0.8 0  2 0.8 0  2.1 0.8 0  2.2 0.8 0  2.3 0.8 0  2.4 0.8 0  2.5 0.8 0  2.6 0.8 0  2.7 0.8 0  2.8 0.8 0  2.9 0.8 0  3 0.8 0  3.1 0.8 0  3.2 0.8 0  3.3 0.8 0
[...]
<PointData  Scalars="f_15"> 
<DataArray  type="Float64"  Name="f_15"  format="ascii">-1.5000957926187457e-03  -1.4451104906226988e-03  -1.3919646545916525e-03  -1.3396034503370760e-03  -1.2878315116456901e-03  -1.2365741553677313e-03  -1.1857953980400338e-03  -1.1354780966187036e-03  -1.0856161447290152e-03  -1.0362105811087808e-03  -9.8726748737852643e-04  -9.3879679138822436e-04  -8.9081154780509938e-04  -8.4332747187603353e-04  -7.9636260310739378e-04  -7.4993703088672493e-04  -7.0407264689660923e-04  -6.5879290901840867e-04  -6.1412261274659331e-04  -5.7008767162161948e-04  -5.2671490986857779e-04  -4.8403186993051060e-04  -4.4206663614226529e-04  -4.0084767422154217e-04  -3.6040368500269885e-04  -3.2076347006629839e-04  -2.8195580660484582e-04  -2.4400932890773183e-04  -2.0695241411917953e-04  -1.7081307030993495e-04  -1.3561882532405736e-04  -1.0139661526465978e-04  -6.8172671840266861e-05  -3.5972408097537501e-05  -4.8203023180827335e-06  2.5260219936133462e-05  5.4246905474272529e-05  8.2118794528914370e-05  1.0885634279343587e-04  1.3444154392594859e-04  1.5885805191202823e-04  1.8209130260085895e-04  2.0412863366254882e-04  2.2495940215807583e-04  2.4457509886788531e-04  2.6296945849103452e-04  2.8013856480452984e-04  2.9608094986251763e-04  3.1079768631754254e-04  3.2429247196118758e-04  3.3657170560876470e-04  3.4764455349177675e-04  3.5752300537172395e-04  3.6622191964827698e-04  3.7375905680239225e-04  3.8015510058880190e-04  3.8543366647042715e-04  3.8962129686734162e-04  3.9274744287246617e-04  3.9484443216252917e-04  3.9594742290324921e-04  3.9609434350933967e-04  3.9532581817004731e-04  3.9368507808688462e-04  3.9121785838962269e-04  3.8797228069756376e-04  3.8399872127435142e-04  3.7934966468568476e-04  3.7407954281109792e-04  3.6824455898566200e-04  3.6190249695897760e-04  3.5511251426289007e-04  3.4793491948335430e-04  3.4043093284436541e-04  3.3266242944141213e-04  3.2469166441511662e-04  3.1658097933430192e-04  3.0839248905453043e-04  3.0018774831226604e-04  2.9202739726661906e-04  2.8397078504752940e-04  2.7607557002386148e-04  2.6839729485748470e-04  2.6098893333581681e-04  2.5390040435093749e-04  2.4717804611178770e-04  2.4086404066857555e-04  2.3499577508139503e-04  2.2960512113180144e-04  2.2471761049442927e-04  2.2035147702635289e-04  2.1651653284594210e-04  2.1321284138769674e-04  2.1042915153049861e-04  2.0814106927311259e-04  2.0630898528812102e-04  2.0487589688955934e-04  2.0376561012779229e-04  2.0288285185610506e-04  2.0212229342976624e-04  2.0142177133062534e-04  -1.4983299622316289e-03  -1.4439814784455666e-03  -1.3906440020384360e-03  -1.3381064687980125e-03  -1.2861721671457152e-03  -1.2347580793368770e-03  -1.1838260566706968e-03  -1.1333583681507743e-03  -1.0833486530483711e-03  -1.0337977864701812e-03  -9.8471171376989571e-04  -9.3610023046242208e-04  -8.8797625680892911e-04  -8.4035537547949926e-04  -7.9325550420503361e-04  -7.4669663188160719e-04  -7.0070058043860588e-04  -6.5529077560463249e-04  -6.1049202193311127e-04  -5.6633028367307156e-04  -5.2283247524165938e-04  -4.8002626479063201e-04  -4.3793989293572084e-04  -3.9660200702656642e-04  -3.5604150989486388e-04  -3.1628742104814931e-04  -2.7736874779405048e-04  -2.3931436369568042e-04  -2.0215289194766510e-04  -1.6591259160533687e-04  -1.3062124500460120e-04  -9.6306045115421730e-05  -6.2993481943183940e-05  -3.0709227414530133e-05  5.2198154459000960e-07  3.0676461806243808e-05  5.9731704595154568e-05  8.7666497528097426e-05  1.1446104773536559e-04  1.4009710555056262e-04  1.6455808815931102e-04  1.8782920251488066e-04  2.0989756675807226e-04  2.3075232931948138e-04  2.5038478483465493e-04  2.6878848596692816e-04  2.8595935020939926e-04  3.0189576072686398e-04  3.1659866030085357e-04  3.3007163745617322e-04  3.4232100387521035e-04  3.5335586224622653e-04  3.6318816374291562e-04  3.7183275439351857e-04  3.7930740966719324e-04  3.8563285668132165e-04  3.9083278351391778e-04  3.9493383518792634e-04  3.9796559597644806e-04  3.9996055775703748e-04  4.0095407421639185e-04  4.0098430077107505e-04  4.0009212012250006e-04  3.9832105340253840e-04  3.9571715688727869e-04  3.9232890425860241e-04  3.8820705437491061e-04  3.8340450447297468e-04  3.7797612866308808e-04  3.7197860150150607e-04  3.6547020633135766e-04  3.5851062798140167e-04  3.5116072930861626e-04  3.4348231097437406e-04  3.3553785376383102e-04  3.2739024270144460e-04  3.1910247218490970e-04  3.1073733134927284e-04  3.0235706886289342e-04  2.9402303630852528e-04  2.8579530915351706e-04  2.7773228397392786e-04  2.6989024995422800e-04  2.6232293160508219e-04  2.5508099798947007e-04  2.4821153139770538e-04  2.4175744527200871e-04  2.3575683720511252e-04  2.3024225803474030e-04  2.2523987250068402e-04  2.2076848079240289e-04  2.1683836396599988e-04  2.1344991054721502e-04  2.1059197893384375e-04  2.0823995636394136e-04  2.0635350573365731e-04  2.0487408794990841e-04  2.0372263341612384e-04  2.0279864836994515e-04  2.0198599439975786e-04  2.0116303675769424e-04  -1.4955271072606101e-03  -1.4417381205043954e-03  -1.3884656529823463e-03  -1.3358452121078512e-03  -1.2838012678494507e-03  -1.2322741483211763e-03  -1.1812293958575913e-03  -1.1306498679392062e-03  -1.0805293282798475e-03  -1.0308686915574455e-03  -9.8167391080966810e-04  -9.3295476911356391e-04  -8.8472416135164779e-04  -8.3699763940051628e-04  -7.8979309330226783e-04  -7.4313049619266556e-04  -6.9703167412793769e-04  -6.5152008289569437e-04  -6.0662058656802038e-04  -5.6235923930060170e-04  -5.1876307448541707e-04  -4.7585990536084914e-04  -4.3367813983907039e-04  -3.9224661055675133e-04  -3.5159441956941783e-04  -3.1175079596676154e-04  -2.7274496404383684e-04  -2.3460601945394759e-04  -1.9736281087398821e-04  -1.6104382500972884e-04  -1.2567707315631007e-04  -9.1289977937206745e-05  -5.7909259230209412e-05  -2.5560818630433961e-05  5.7303779083838992e-06  3.5940419369780986e-05  6.5046570821499674e-05  9.3027396159810647e-05  1.1986288205724192e-04  1.4553456260086689e-04  1.7002564400678919e-04  1.9332112870953862e-04  2.1540793805122796e-04  2.3627503273378423e-04  2.5591353014827389e-04  2.7431681765845026e-04  2.9148066089155876e-04  3.0740330607840983e-04  3.2208557548697942e-04  3.3553095500928054e-04  3.4774567298968015e-04  3.5873876942358343e-04  3.6852215470761546e-04  3.7711065718479709e-04  3.8452205879925007e-04  3.9077711825278596e-04  3.9589958113823076e-04  3.9991617660910933e-04  4.0285660022978189e-04  4.0475348273147761e-04  4.0564234447501915e-04  4.0556153548739106e-04  4.0455216099371041e-04  4.0265799240574705e-04  3.9992536375035349e-04  3.9640305352373783e-04  3.9214215193895079e-04  3.8719591349350058e-04  3.8161959472214293e-04  3.7547027691854428e-04  3.6880667351234692e-04  3.6168892168079130e-04  3.5417835766397957e-04  3.4633727514908294e-04  3.3822866600076391e-04  3.2991594255093407e-04  3.2146264062455433e-04  3.1293210246516101e-04  3.0438713871644164e-04  2.9588966857788530e-04  2.8750033712252325e-04  2.7927810845488699e-04  2.7127983278237174e-04  2.6355978443677808e-04  2.5616916626914666e-04  2.4915557351209278e-04  2.4256240704899901e-04  2.3642822198346997e-04  2.3078599246103120e-04  2.2566226793314549e-04  2.2107618967131209e-04  2.1703832979286271e-04  2.1354930940998301e-04  2.1059815026712821e-04  2.0816032128861977e-04  2.0619547144164457e-04  2.0464492424658852e-04  2.0342921620191030e-04  2.0244633557238355e-04  2.0157210792250962e-04  2.0063958966601682e-04  -1.4917958205906236e-03  -1.4383735285630899e-03  -1.3852935699461952e-03  -1.3327126844201917e-03  -1.2806429221296251e-03  -1.2290639142505881e-03  -1.1779567141977894e-03  -1.1273101597006924e-03  -1.0771204051402991e-03  -1.0273894149996474e-03  -9.7812366415378016e-04  -9.2933322422268042e-04  -8.8103116205616222e-04  -8.3323313950543244e-04  -7.8595712527951126e-04  -7.3922315980474572e-04  -6.9305313897064414e-04  -6.4747060055286810e-04  -6.0250050873905724e-04  -5.5816903872264105e-04  -5.1450336602938652e-04  -4.7153146536751522e-04  -4.2928192249502969e-04  -3.8778376078513178e-04  -3.4706628244742107e-04  -3.0715892304718006e-04  -2.6809111715459964e-04  -2.2989217260818422e-04  -1.9259115088329751e-04  -1.5621675129498682e-04  -1.2079719712622818e-04  -8.6360122178399376e-05  -5.2932456638248726e-05  -2.0540311516547096e-05  1.0791138773526740e-05  4.1037775866320538e-05  7.0176658870402885e-05  9.8186147538187964e-05  1.2504602679273868e-04  1.5073763209833986e-04  1.7524397505341196e-04  1.9854986849269412e-04  2.2064205030838423e-04  2.4150930513599942e-04  2.6114258299976935e-04  2.7953511397437185e-04  2.9668251789504758e-04  3.1258290813676934e-04  3.2723698848538427e-04  3.4064814213940526e-04  3.5282251191012240e-04  3.6376907072929260e-04  3.7349968162697064e-04  3.8202914640578055e-04  3.8937524231053846e-04  3.9555874607175663e-04  4.0060344478601111e-04  4.0453613318300872e-04  4.0738659691579536e-04  4.0918758159408294e-04  4.0997474735811129e-04  4.0978660885883909e-04  4.0866446056646706e-04  4.0665228737047217e-04  4.0379666045778671e-04  4.0014661845924366e-04  3.9575353383630051e-04  3.9067096443961825e-04  3.8495449010873134e-04  3.7866153409973175e-04  3.7185116902931108e-04  3.6458390691434031e-04  3.5692147277408974e-04  3.4892656115646320e-04  3.4066257486012802e-04  3.3219334506001663e-04  3.2358283200923797e-04  3.1489480548316386e-04  3.0619250413571245e-04  2.9753827291979752e-04  2.8899317762610190e-04  2.8061659533225845e-04  2.7246577901651471e-04  2.6459539364227281e-04  2.5705701951826883e-04  2.4989861654645546e-04  2.4316393997853890e-04  2.3689189446057365e-04  2.3111580848554170e-04  2.2586260605392521e-04  2.2115184671966893e-04  2.1699459999036978e-04  2.1339211666088616e-04  2.1033426080222450e-04  2.0779767679002221e-04  2.0574369390413192e-04  2.0411602345498463e-04  2.0283835340007114e-04  2.0181172461316497e-04  2.0091130278147466e-04  1.9995541374669875e-04  -1.4871099921004412e-03  -1.4339933404898043e-03  -1.3811423883663019e-03  -1.3286867201775456e-03  -1.2766716007593783e-03  -1.2251076324805770e-03  -1.1739939700748253e-03  -1.1233290073012401e-03  -1.0731139065953904e-03  -1.0233532933899838e-03  -9.7405510086468090e-04  -9.2523023859703111e-04  -8.7689228157982401e-04  -8.2905721688534932e-04  -7.8174323440443033e-04  -7.3497053795723393e-04  -6.8876115834210221e-04  -6.4313875901196691e-04  -5.9812843299602333e-04  -5.5375649475347037e-04  -5.1005027282788253e-04  -4.6703790913733693e-04  -4.2474816935964249e-04  -3.8321026695004132e-04  -3.4245370144405805e-04  -3.0250811018961774e-04  -2.6340313164901265e-04  -2.2516827789674987e-04  -1.8783281381946196e-04  -1.5142564067889991e-04  -1.1597518201598192e-04  -8.1509270263970093e-05  -4.8055032840724538e-05  -1.5638776866883470e-05  1.5714128009140474e-05  4.5979368912535152e-05  7.5133811163074712e-05  1.0315562160929236e-04  1.3002439350335828e-04  1.5572127240550567e-04  1.8022908249047047e-04  2.0353245253058907e-04  2.2561794074845728e-04  2.4647415766490983e-04  2.6609188601485934e-04  2.8446419676398624e-04  3.0158656023350570e-04  3.1745695132834046e-04  3.3207594786612390e-04  3.4544682102042391e-04  3.5757561692110188e-04  3.6847122849717706e-04  3.7814545670201131e-04  3.8661306032582881e-04  3.9389179367488872e-04  4.0000243147819936e-04  4.0496878046924182e-04  4.0881767717931855e-04  4.1157897156813471e-04  4.1328549620319913e-04  4.1397302077952994e-04  4.1368019184192015e-04  4.1244845763058728e-04  4.1032197801441902e-04  4.0734751950164164e-04  4.0357433532325481e-04  3.9905403056848484e-04  3.9384041231309801e-04  3.8798932462123055e-04  3.8155846822148784e-04  3.7460720456232156e-04  3.6719634384596312e-04  3.5938791653242837e-04  3.5124492770483858e-04  3.4283109360490490e-04  3.3421055959233388e-04  3.2544759876006570e-04  3.1660629044734937e-04  3.0775017792146779e-04  2.9894190451601010e-04  2.9024282746632703e-04  2.8171260849292813e-04  2.7340877974718717e-04  2.6538628292632142e-04  2.5769697805307345e-04  2.5038911647740016e-04  2.4350677000787072e-04  2.3708920470580301e-04  2.3117018387533138e-04  2.2577718042660606e-04  2.2093047459714420e-04  2.1664210988333571e-04  2.1291467939584587e-04  2.0973991877686830e-04  2.0709709247379110e-04  2.0495117663433090e-04  2.0325084760401766e-04  2.0192621087917418e-04  2.0088581013492937e-04  2.0001284726493468e-04  1.9913355972812642e-04  -1.4814806350446311e-03  -1.4286564718043347e-03  -1.3760528619059641e-03  -1.3237770809787065e-03  -1.2718816251010908e-03  -1.2203947335164480e-03  -1.1693303460445722e-03  -1.1186968659639583e-03  -1.0685017072502166e-03  -1.0187533299127821e-03  -9.6946202866462323e-04  -9.2064018413492554e-04  -8.7230230295425612e-04  -8.2446497526994327e-04  -7.7714679287436354e-04  -7.3036823907683820e-04  -6.8415155220733837e-04  -6.3852056456962028e-04  -5.9350052137628205e-04  -5.4911788663416876e-04  -5.0540014392906022e-04  -4.6237559950796606e-04  -4.2007319342972940e-04  -3.7852232244317368e-04  -3.3775267616486073e-04  -2.9779408639653309e-04  -2.5867638819421484e-04  -2.2042929058461831e-04  -1.8308225454238109e-04  -1.4666437588010080e-04  -1.1120427094739213e-04  -7.6729963388793602e-05  -4.3268770602410645e-05  -1.0847188925682898e-05  2.0509223073952701e-05  5.0775963518405809e-05  7.9929708401512214e-05  1.0794843486851846e-04  1.3481154624303817e-04  1.6049999829942022e-04  1.8499642615105072e-04  2.0828527101878150e-04  2.3035290605548812e-04  2.5118776033082732e-04  2.7078044002352611e-04  2.8912384582647843e-04  3.0621328554245004e-04  3.2204658083522257e-04  3.3662416710260112e-04  3.4994918545365439e-04  3.6202756580251254e-04  3.7286810013437171e-04  3.8248250505504571e-04  3.9088547280224223e-04  3.9809470997302177e-04  4.0413096330574620e-04  4.0901803194396910e-04  4.1278276570163463e-04  4.1545504894092245e-04  4.1706776976314366e-04  4.1765677429621544e-04  4.1726080593629700e-04  4.1592142946313121e-04  4.1368293999551146e-04  4.1059225678257279e-04  4.0669880183606048e-04  4.0205436339696443e-04  3.9671294419643492e-04  3.9073059441645708e-04  3.8416522918269567e-04  3.7707643033440050e-04  3.6952523212046824e-04  3.6157389037496301e-04  3.5328563463952372e-04  3.4472440263491925e-04  3.3595455644960153e-04  3.2704057981625958e-04  3.1804675588825194e-04  3.0903682499548420e-04  3.0007362192697670e-04  2.9121869230779290e-04  2.8253188754049106e-04  2.7407093747216864e-04  2.6589099931651123e-04  2.5804418029058284e-04  2.5057902981968954e-04  2.4353999496876623e-04  2.3696683000901803e-04  2.3089394788926464e-04  2.2534969820105008e-04  2.2035555358889463e-04  2.1592518530989818e-04  2.1206340982473160e-04  2.0876499268641292e-04  2.0601330261558269e-04  2.0377881062264041e-04  2.0201740396158806e-04  2.0066838288956485e-04  1.9965172274242875e-04  1.9886540967062514e-04  1.9815441194242594e-04  -1.4749257141066991e-03  -1.4223998138135757e-03  -1.3700624828795692e-03  -1.3180056493378792e-03  -1.2662809713890083e-03  -1.2149250576831063e-03  -1.1639619060618159e-03  -1.1134084039240810e-03  -1.0632782099581138e-03  -1.0135841148141464e-03  -9.6433934298688437e-04  -9.1555824146803699e-04  -8.6725663478387960e-04  -8.1945199746485443e-04  -7.7216351769559340e-04  -7.2541208636442433e-04  -6.7922022884235578e-04  -6.3361199127728038e-04  -5.8861279222920777e-04  -5.4424925060491400e-04  -5.0054900052442976e-04  -4.5754050251987341e-04  -4.1525285847507587e-04  -3.7371563535416907e-04  -3.3295870044740131e-04  -2.9301206888489214e-04  -2.5390576269113357e-04  -2.1566967970368601e-04  -1.7833347019973039e-04  -1.4192641896056116e-04  -1.0647733064335126e-04  -7.2014416620011688e-05  -3.8565181805251796e-05  -6.1563103745619297e-06  2.5186450366371823e-05  5.5438408374186287e-05  8.4576047652784941e-05  1.1257715132030168e-04  1.3942092664496840e-04  1.6508813156714840e-04  1.8956120208324194e-04  2.1282437974941114e-04  2.3486383846584781e-04  2.5566780962336022e-04  2.7522670463197093e-04  2.9353323380516773e-04  3.1058252054310173e-04  3.2637220974311942e-04  3.4090256936647543e-04  3.5417658410559646e-04  3.6620004012645366e-04  3.7698159990475047e-04  3.8653286623171090e-04  3.9486843453399520e-04  4.0200593273094173e-04  4.0796604793900601e-04  4.1277253942563654e-04  4.1645223731031418e-04  4.1903502660633845e-04  4.2055381629017130e-04  4.2104449317269423e-04  4.2054586042548659e-04  4.1909956068217986e-04  4.1674998368720169e-04  4.1354415849937021e-04  4.0953163027381901e-04  4.0476432164143913e-04  3.9929637868024541e-04  3.9318400142888477e-04  3.8648525883165202e-04  3.7925988793142165e-04  3.7156907704846595e-04  3.6347523260784416e-04  3.5504172921619150e-04  3.4633264255141646e-04  3.3741246462643351e-04  3.2834580102793654e-04  3.1919704981446485e-04  3.1003006187539287e-04  3.0090778268017008e-04  2.9189187544276848e-04  2.8304232572674999e-04  2.7441702733906748e-04  2.6607134891021820e-04  2.5805767974032789e-04  2.5042495223416604e-04  2.4321813653626901e-04  2.3647770088491829e-04  2.3023902893559597e-04  2.2453178322596548e-04  2.1937920259154422e-04  2.1479732130423723e-04  2.1079409942734062e-04  2.0736845694317667e-04  2.0450920586771238e-04  2.0219386708580545e-04  2.0038732632747980e-04  1.9904020930662346e-04  1.9808671009966536e-04  1.9744330661079055e-04  1.9697735485997185e-04  -1.4674640351960144e-03  -1.4152513139932329e-03  -1.3632017214708935e-03  -1.3113963020338179e-03  -1.2598842785881161e-03  -1.2087056874766707e-03  -1.1578908046436084e-03  -1.1074629501366577e-03  -1.0574412550339262e-03  -1.0078427547717172e-03  -9.5868381031369255e-04  -9.0998102348278324e-04  -8.6175181243324872e-04  -8.1401476428994411e-04  -7.6678983653552177e-04  -7.2009844901917272e-04  -6.7396349230346966e-04  -6.2840927066846282e-04  -5.8346139524953565e-04  -5.3914664159442657e-04  -4.9549278478593962e-04  -4.5252842357671846e-04  -4.1028280270928954e-04  -3.6878564002159437e-04  -3.2806696240473773e-04  -2.8815695246420231e-04  -2.4908580600308667e-04  -2.1088359924609722e-04  -1.7358016401868774e-04  -1.3720496879826325e-04  -1.0178700355633221e-04  -6.7354666508741881e-05  -3.3935651199780392e-05  -1.5568327008478265e-06  2.9755847937393815e-05  5.9977501504544888e-05  8.9084410945839169e-05  1.1705415413558106e-04  1.4386572884700520e-04  1.6949967946770604e-04  1.9393822485100554e-04  2.1716538656127516e-04  2.3916711666196349e-04  2.5993142410640703e-04  2.7944849872172951e-04  2.9771083172413745e-04  3.1471333166911095e-04  3.3045343472193041e-04  3.4493120813238951e-04  3.5814944581206819e-04  3.7011375494260586e-04  3.8083263258831620e-04  3.9031753134509894e-04  3.9858291312859441e-04  4.0564629028615293e-04  4.1152825330742992e-04  4.1625248450492705e-04  4.1984575713598348e-04  4.2233791953874458e-04  4.2376186395351819e-04  4.2415347979460870e-04  4.2355159122309488e-04  4.2199787894518814e-04  4.1953678622098597e-04  4.1621540911239592e-04  4.1208337102497967e-04  4.0719268160559544e-04  4.0159758004620617e-04  3.9535436281559018e-04  3.8852119579814849e-04  3.8115791076756203e-04  3.7332578606974151e-04  3.6508731134325608e-04  3.5650593607662942e-04  3.4764580180161739e-04  3.3857145776000679e-04  3.2934755996565627e-04  3.2003855371444612e-04  3.1070833976377032e-04  3.0141992458809460e-04  2.9223505527929699e-04  2.8321383974379326e-04  2.7441435278144355e-04  2.6589222833509236e-04  2.5770023760256894e-04  2.4988785176234806e-04  2.4250078679411203e-04  2.3558052637740243e-04  2.2916381733688958e-04  2.2328213089435337e-04  2.1796108247092017e-04  2.1321980326109420e-04  2.0907025817076743e-04  2.0551650586928799e-04  2.0255389463237305e-04  2.0016817660714297e-04  1.9833449570296993e-04  1.9701616207901121e-04  1.9616305454875970e-04  1.9571139322716537e-04  1.9555102698411825e-04  -1.4591142782500101e-03  -1.4072344292781250e-03  -1.3554958883004880e-03  -1.3039716054904261e-03  -1.2527085150491669e-03  -1.2017478524604765e-03  -1.1511236524719135e-03  -1.1008638602558957e-03  -1.0509920656167323e-03  -1.0015291217328613e-03  