<?xml version="1.0"?>
<VTKFile type="UnstructuredGrid"  version="0.1"  >
<UnstructuredGrid>
<Piece  NumberOfPoints="10201" NumberOfCells="20000">
<Points>
<DataArray  type="Float64"  NumberOfComponents="3"  format="ascii">0 0 0  0.1 0 0  0.2 0 0  0.3 0 0  0.4 0 0  0.5 0 0  0.6 0 0  0.7 0 0  0.8 0 0  0.9 0 0  1 0 0  1.1 0 0  1.2 0 0  1.3 0 0  1.4 0 0  1.5 0 0  1.6 0 0  1.7 0 0  1.8 0 0  1.9 0 0  2 0 0  2.1 0 0  2.2 0 0  2.3 0 0  2.4 0 0  2.5 0 0  2.6 0 0  2.7 0 0  2.8 0 0  2.9 0 0  3 0 0  3.1 0 0  3.2 0 0  3.3 0 0  3.4 0 0  3.5 0 0  3.6 0 0  3.7 0 0  3.8 0 0  3.9 0 0  4 0 0  4.1 0 0  4.2 0 0  4.3 0 0  4.4 0 0  4.5 0 0  4.6 0 0  4.7 0 0  4.8 0 0  4.9 0 0  5 0 0  5.1 0 0  5.2 0 0  5.3 0 0  5.4 0 0  5.5 0 0  5.6 0 0  5.7 0 0  5.8 0 0  5.9 0 0  6 0 0  6.1 0 0  6.2 0 0  6.3 0 0  6.4 0 0  6.5 0 0  6.6 0 0  6.7 0 0  6.8 0 0  6.9 0 0  7 0 0  7.1 0 0  7.2 0 0  7.3 0 0  7.4 0 0  7.5 0 0  7.6 0 0  7.7 0 0  7.8 0 0  7.9 0 0  8 0 0  8.1 0 0  8.199999999999999 0 0  8.300000000000001 0 0  8.4 0 0  8.5 0 0  8.6 0 0  8.699999999999999 0 0  8.800000000000001 0 0  8.9 0 0  9 0 0  9.1 0 0  9.199999999999999 0 0  9.300000000000001 0 0  9.4 0 0  9.5 0 0  9.6 0 0  9.699999999999999 0 0  9.800000000000001 0 0  9.9 0 0  10 0 0  0 0.1 0  0.1 0.1 0  0.2 0.1 0  0.3 0.1 0  0.4 0.1 0  0.5 0.1 0  0.6 0.1 0  0.7 0.1 0  0.8 0.1 0  0.9 0.1 0  1 0.1 0  1.1 0.1 0  1.2 0.1 0  1.3 0.1 0  1.4 0.1 0  1.5 0.1 0  1.6 0.1 0  1.7 0.1 0  1.8 0.1 0  1.9 0.1 0  2 0.1 0  2.1 0.1 0  2.2 0.1 0  2.3 0.1 0  2.4 0.1 0  2.5 0.1 0  2.6 0.1 0  2.7 0.1 0  2.8 0.1 0  2.9 0.1 0  3 0.1 0  3.1 0.1 0  3.2 0.1 0  3.3 0.1 0  3.4 0.1 0  3.5 0.1 0  3.6 0.1 0  3.7 0.1 0  3.8 0.1 0  3.9 0.1 0  4 0.1 0  4.1 0.1 0  4.2 0.1 0  4.3 0.1 0  4.4 0.1 0  4.5 0.1 0  4.6 0.1 0  4.7 0.1 0  4.8 0.1 0  4.9 0.1 0  5 0.1 0  5.1 0.1 0  5.2 0.1 0  5.3 0.1 0  5.4 0.1 0  5.5 0.1 0  5.6 0.1 0  5.7 0.1 0  5.8 0.1 0  5.9 0.1 0  6 0.1 0  6.1 0.1 0  6.2 0.1 0  6.3 0.1 0  6.4 0.1 0  6.5 0.1 0  6.6 0.1 0  6.7 0.1 0  6.8 0.1 0  6.9 0.1 0  7 0.1 0  7.1 0.1 0  7.2 0.1 0  7.3 0.1 0  7.4 0.1 0  7.5 0.1 0  7.6 0.1 0  7.7 0.1 0  7.8 0.1 0  7.9 0.1 0  8 0.1 0  8.1 0.1 0  8.199999999999999 0.1 0  8.300000000000001 0.1 0  8.4 0.1 0  8.5 0.1 0  8.6 0.1 0  8.699999999999999 0.1 0  8.800000000000001 0.1 0  8.9 0.1 0  9 0.1 0  9.1 0.1 0  9.199999999999999 0.1 0  9.300000000000001 0.1 0  9.4 0.1 0  9.5 0.1 0  9.6 0.1 0  9.699999999999999 0.1 0  9.800000000000001 0.1 0  9.9 0.1 0  10 0.1 0  0 0.2 0  0.1 0.2 0  0.2 0.2 0  0.3 0.2 0  0.4 0.2 0  0.5 0.2 0  0.6 0.2 0  0.7 0.2 0  0.8 0.2 0  0.9 0.2 0  1 0.2 0  1.1 0.2 0  1.2 0.2 0  1.3 0.2 0  1.4 0.2 0  1.5 0.2 0  1.6 0.2 0  1.7 0.2 0  1.8 0.2 0  1.9 0.2 0  2 0.2 0  2.1 0.2 0  2.2 0.2 0  2.3 0.2 0  2.4 0.2 0  2.5 0.2 0  2.6 0.2 0  2.7 0.2 0  2.8 0.2 0  2.9 0.2 0  3 0.2 0  3.1 0.2 0  3.2 0.2 0  3.3 0.2 0  3.4 0.2 0  3.5 0.2 0  3.6 0.2 0  3.7 0.2 0  3.8 0.2 0  3.9 0.2 0  4 0.2 0  4.1 0.2 0  4.2 0.2 0  4.3 0.2 0  4.4 0.2 0  4.5 0.2 0  4.6 0.2 0  4.7 0.2 0  4.8 0.2 0  4.9 0.2 0  5 0.2 0  5.1 0.2 0  5.2 0.2 0  5.3 0.2 0  5.4 0.2 0  5.5 0.2 0  5.6 0.2 0  5.7 0.2 0  5.8 0.2 0  5.9 0.2 0  6 0.2 0  6.1 0.2 0  6.2 0.2 0  6.3 0.2 0  6.4 0.2 0  6.5 0.2 0  6.6 0.2 0  6.7 0.2 0  6.8 0.2 0  6.9 0.2 0  7 0.2 0  7.1 0.2 0  7.2 0.2 0  7.3 0.2 0  7.4 0.2 0  7.5 0.2 0  7.6 0.2 0  7.7 0.2 0  7.8 0.2 0  7.9 0.2 0  8 0.2 0  8.1 0.2 0  8.199999999999999 0.2 0  8.300000000000001 0.2 0  8.4 0.2 0  8.5 0.2 0  8.6 0.2 0  8.699999999999999 0.2 0  8.800000000000001 0.2 0  8.9 0.2 0  9 0.2 0  9.1 0.2 0  9.199999999999999 0.2 0  9.300000000000001 0.2 0  9.4 0.2 0  9.5 0.2 0  9.6 0.2 0  9.699999999999999 0.2 0  9.800000000000001 0.2 0  9.9 0.2 0  10 0.2 0  0 0.3 0  0.1 0.3 0  0.2 0.3 0  0.3 0.3 0  0.4 0.3 0  0.5 0.3 0  0.6 0.3 0  0.7 0.3 0  0.8 0.3 0  0.9 0.3 0  1 0.3 0  1.1 0.3 0  1.2 0.3 0  1.3 0.3 0  1.4 0.3 0  1.5 0.3 0  1.6 0.3 0  1.7 0.3 0  1.8 0.3 0  1.9 0.3 0  2 0.3 0  2.1 0.3 0  2.2 0.3 0  2.3 0.3 0  2.4 0.3 0  2.5 0.3 0  2.6 0.3 0  2.7 0.3 0  2.8 0.3 0  2.9 0.3 0  3 0.3 0  3.1 0.3 0  3.2 0.3 0  3.3 0.3 0  3.4 0.3 0  3.5 0.3 0  3.6 0.3 0  3.7 0.3 0  3.8 0.3 0  3.9 0.3 0  4 0.3 0  4.1 0.3 0  4.2 0.3 0  4.3 0.3 0  4.4 0.3 0  4.5 0.3 0  4.6 0.3 0  4.7 0.3 0  4.8 0.3 0  4.9 0.3 0  5 0.3 0  5.1 0.3 0  5.2 0.3 0  5.3 0.3 0  5.4 0.3 0  5.5 0.3 0  5.6 0.3 0  5.7 0.3 0  5.8 0.3 0  5.9 0.3 0  6 0.3 0  6.1 0.3 0  6.2 0.3 0  6.3 0.3 0  6.4 0.3 0  6.5 0.3 0  6.6 0.3 0  6.7 0.3 0  6.8 0.3 0  6.9 0.3 0  7 0.3 0  7.1 0.3 0  7.2 0.3 0  7.3 0.3 0  7.4 0.3 0  7.5 0.3 0  7.6 0.3 0  7.7 0.3 0  7.8 0.3 0  7.9 0.3 0  8 0.3 0  8.1 0.3 0  8.199999999999999 0.3 0  8.300000000000001 0.3 0  8.4 0.3 0  8.5 0.3 0  8.6 0.3 0  8.699999999999999 0.3 0  8.800000000000001 0.3 0  8.9 0.3 0  9 0.3 0  9.1 0.3 0  9.199999999999999 0.3 0  9.300000000000001 0.3 0  9.4 0.3 0  9.5 0.3 0  9.6 0.3 0  9.699999999999999 0.3 0  9.800000000000001 0.3 0  9.9 0.3 0  10 0.3 0  0 0.4 0  0.1 0.4 0  0.2 0.4 0  0.3 0.4 0  0.4 0.4 0  0.5 0.4 0  0.6 0.4 0  0.7 0.4 0  0.8 0.4 0  0.9 0.4 0  1 0.4 0  1.1 0.4 0  1.2 0.4 0  1.3 0.4 0  1.4 0.4 0  1.5 0.4 0  1.6 0.4 0  1.7 0.4 0  1.8 0.4 0  1.9 0.4 0  2 0.4 0  2.1 0.4 0  2.2 0.4 0  2.3 0.4 0  2.4 0.4 0  2.5 0.4 0  2.6 0.4 0  2.7 0.4 0  2.8 0.4 0  2.9 0.4 0  3 0.4 0  3.1 0.4 0  3.2 0.4 0  3.3 0.4 0  3.4 0.4 0  3.5 0.4 0  3.6 0.4 0  3.7 0.4 0  3.8 0.4 0  3.9 0.4 0  4 0.4 0  4.1 0.4 0  4.2 0.4 0  4.3 0.4 0  4.4 0.4 0  4.5 0.4 0  4.6 0.4 0  4.7 0.4 0  4.8 0.4 0  4.9 0.4 0  5 0.4 0  5.1 0.4 0  5.2 0.4 0  5.3 0.4 0  5.4 0.4 0  5.5 0.4 0  5.6 0.4 0  5.7 0.4 0  5.8 0.4 0  5.9 0.4 0  6 0.4 0  6.1 0.4 0  6.2 0.4 0  6.3 0.4 0  6.4 0.4 0  6.5 0.4 0  6.6 0.4 0  6.7 0.4 0  6.8 0.4 0  6.9 0.4 0  7 0.4 0  7.1 0.4 0  7.2 0.4 0  7.3 0.4 0  7.4 0.4 0  7.5 0.4 0  7.6 0.4 0  7.7 0.4 0  7.8 0.4 0  7.9 0.4 0  8 0.4 0  8.1 0.4 0  8.199999999999999 0.4 0  8.300000000000001 0.4 0  8.4 0.4 0  8.5 0.4 0  8.6 0.4 0  8.699999999999999 0.4 0  8.800000000000001 0.4 0  8.9 0.4 0  9 0.4 0  9.1 0.4 0  9.199999999999999 0.4 0  9.300000000000001 0.4 0  9.4 0.4 0  9.5 0.4 0  9.6 0.4 0  9.699999999999999 0.4 0  9.800000000000001 0.4 0  9.9 0.4 0  10 0.4 0  0 0.5 0  0.1 0.5 0  0.2 0.5 0  0.3 0.5 0  0.4 0.5 0  0.5 0.5 0  0.6 0.5 0  0.7 0.5 0  0.8 0.5 0  0.9 0.5 0  1 0.5 0  1.1 0.5 0  1.2 0.5 0  1.3 0.5 0  1.4 0.5 0  1.5 0.5 0  1.6 0.5 0  1.7 0.5 0  1.8 0.5 0  1.9 0.5 0  2 0.5 0  2.1 0.5 0  2.2 0.5 0  2.3 0.5 0  2.4 0.5 0  2.5 0.5 0  2.6 0.5 0  2.7 0.5 0  2.8 0.5 0  2.9 0.5 0  3 0.5 0  3.1 0.5 0  3.2 0.5 0  3.3 0.5 0  3.4 0.5 0  3.5 0.5 0  3.6 0.5 0  3.7 0.5 0  3.8 0.5 0  3.9 0.5 0  4 0.5 0  4.1 0.5 0  4.2 0.5 0  4.3 0.5 0  4.4 0.5 0  4.5 0.5 0  4.6 0.5 0  4.7 0.5 0  4.8 0.5 0  4.9 0.5 0  5 0.5 0  5.1 0.5 0  5.2 0.5 0  5.3 0.5 0  5.4 0.5 0  5.5 0.5 0  5.6 0.5 0  5.7 0.5 0  5.8 0.5 0  5.9 0.5 0  6 0.5 0  6.1 0.5 0  6.2 0.5 0  6.3 0.5 0  6.4 0.5 0  6.5 0.5 0  6.6 0.5 0  6.7 0.5 0  6.8 0.5 0  6.9 0.5 0  7 0.5 0  7.1 0.5 0  7.2 0.5 0  7.3 0.5 0  7.4 0.5 0  7.5 0.5 0  7.6 0.5 0  7.7 0.5 0  7.8 0.5 0  7.9 0.5 0  8 0.5 0  8.1 0.5 0  8.199999999999999 0.5 0  8.300000000000001 0.5 0  8.4 0.5 0  8.5 0.5 0  8.6 0.5 0  8.699999999999999 0.5 0  8.800000000000001 0.5 0  8.9 0.5 0  9 0.5 0  9.1 0.5 0  9.199999999999999 0.5 0  9.300000000000001 0.5 0  9.4 0.5 0  9.5 0.5 0  9.6 0.5 0  9.699999999999999 0.5 0  9.800000000000001 0.5 0  9.9 0.5 0  10 0.5 0  0 0.6 0  0.1 0.6 0  0.2 0.6 0  0.3 0.6 0  0.4 0.6 0  0.5 0.6 0  0.6 0.6 0  0.7 0.6 0  0.8 0.6 0  0.9 0.6 0  1 0.6 0  1.1 0.6 0  1.2 0.6 0  1.3 0.6 0  1.4 0.6 0  1.5 0.6 0  1.6 0.6 0  1.7 0.6 0  1.8 0.6 0  1.9 0.6 0  2 0.6 0  2.1 0.6 0  2.2 0.6 0  2.3 0.6 0  2.4 0.6 0  2.5 0.6 0  2.6 0.6 0  2.7 0.6 0  2.8 0.6 0  2.9 0.6 0  3 0.6 0  3.1 0.6 0  3.2 0.6 0  3.3 0.6 0  3.4 0.6 0  3.5 0.6 0  3.6 0.6 0  3.7 0.6 0  3.8 0.6 0  3.9 0.6 0  4 0.6 0  4.1 0.6 0  4.2 0.6 0  4.3 0.6 0  4.4 0.6 0  4.5 0.6 0  4.6 0.6 0  4.7 0.6 0  4.8 0.6 0  4.9 0.6 0  5 0.6 0  5.1 0.6 0  5.2 0.6 0  5.3 0.6 0  5.4 0.6 0  5.5 0.6 0  5.6 0.6 0  5.7 0.6 0  5.8 0.6 0  5.9 0.6 0  6 0.6 0  6.1 0.6 0  6.2 0.6 0  6.3 0.6 0  6.4 0.6 0  6.5 0.6 0  6.6 0.6 0  6.7 0.6 0  6.8 0.6 0  6.9 0.6 0  7 0.6 0  7.1 0.6 0  7.2 0.6 0  7.3 0.6 0  7.4 0.6 0  7.5 0.6 0  7.6 0.6 0  7.7 0.6 0  7.8 0.6 0  7.9 0.6 0  8 0.6 0  8.1 0.6 0  8.199999999999999 0.6 0  8.300000000000001 0.6 0  8.4 0.6 0  8.5 0.6 0  8.6 0.6 0  8.699999999999999 0.6 0  8.800000000000001 0.6 0  8.9 0.6 0  9 0.6 0  9.1 0.6 0  9.199999999999999 0.6 0  9.300000000000001 0.6 0  9.4 0.6 0  9.5 0.6 0  9.6 0.6 0  9.699999999999999 0.6 0  9.800000000000001 0.6 0  9.9 0.6 0  10 0.6 0  0 0.7 0  0.1 0.7 0  0.2 0.7 0  0.3 0.7 0  0.4 0.7 0  0.5 0.7 0  0.6 0.7 0  0.7 0.7 0  0.8 0.7 0  0.9 0.7 0  1 0.7 0  1.1 0.7 0  1.2 0.7 0  1.3 0.7 0  1.4 0.7 0  1.5 0.7 0  1.6 0.7 0  1.7 0.7 0  1.8 0.7 0  1.9 0.7 0  2 0.7 0  2.1 0.7 0  2.2 0.7 0  2.3 0.7 0  2.4 0.7 0  2.5 0.7 0  2.6 0.7 0  2.7 0.7 0  2.8 0.7 0  2.9 0.7 0  3 0.7 0  3.1 0.7 0  3.2 0.7 0  3.3 0.7 0  3.4 0.7 0  3.5 0.7 0  3.6 0.7 0  3.7 0.7 0  3.8 0.7 0  3.9 0.7 0  4 0.7 0  4.1 0.7 0  4.2 0.7 0  4.3 0.7 0  4.4 0.7 0  4.5 0.7 0  4.6 0.7 0  4.7 0.7 0  4.8 0.7 0  4.9 0.7 0  5 0.7 0  5.1 0.7 0  5.2 0.7 0  5.3 0.7 0  5.4 0.7 0  5.5 0.7 0  5.6 0.7 0  5.7 0.7 0  5.8 0.7 0  5.9 0.7 0  6 0.7 0  6.1 0.7 0  6.2 0.7 0  6.3 0.7 0  6.4 0.7 0  6.5 0.7 0  6.6 0.7 0  6.7 0.7 0  6.8 0.7 0  6.9 0.7 0  7 0.7 0  7.1 0.7 0  7.2 0.7 0  7.3 0.7 0  7.4 0.7 0  7.5 0.7 0  7.6 0.7 0  7.7 0.7 0  7.8 0.7 0  7.9 0.7 0  8 0.7 0  8.1 0.7 0  8.199999999999999 0.7 0  8.300000000000001 0.7 0  8.4 0.7 0  8.5 0.7 0  8.6 0.7 0  8.699999999999999 0.7 0  8.800000000000001 0.7 0  8.9 0.7 0  9 0.7 0  9.1 0.7 0  9.199999999999999 0.7 0  9.300000000000001 0.7 0  9.4 0.7 0  9.5 0.7 0  9.6 0.7 0  9.699999999999999 0.7 0  9.800000000000001 0.7 0  9.9 0.7 0  10 0.7 0  0 0.8 0  0.1 0.8 0  0.2 0.8 0  0.3 0.8 0  0.4 0.8 0  0.5 0.8 0  0.6 0.8 0  0.7 0.8 0  0.8 0.8 0  0.9 0.8 0  1 0.8 0  1.1 0.8 0  1.2 0.8 0  1.3 0.8 0  1.4 0.8 0  1.5 0.8 0  1.6 0.8 0  1.7 0.8 0  1.8 0.8 0  1.9 0.8 0  2 0.8 0  2.1 0.8 0  2.2 0.8 0  2.3 0.8 0  2.4 0.8 0  2.5 0.8 0  2.6 0.8 0  2.7 0.8 0  2.8 0.8 0  2.9 0.8 0  3 0.8 0  3.1 0.8 0  3.2 0.8 0  3.3 0.8 0
[...]
<PointData  Scalars="f_9"> 
<DataArray  type="Float64"  Name="f_9"  format="ascii">-1.1586496616823667e-02  1.9282235449919924e-01  2.6017384124338483e-01  3.0226781533491504e-01  3.3412292652959524e-01  3.6082000108171197e-01  3.8437118296046857e-01  4.0573195954374014e-01  4.2539851189536210e-01  4.4363268699488567e-01  4.6056812132401326e-01  4.7626797746746763e-01  4.9075889914588905e-01  5.0405174058538715e-01  5.1615417952824871e-01  5.2707795534979496e-01  5.3684240963993279e-01  5.4547550337283368e-01  5.5301320652286845e-01  5.5949795749574460e-01  5.6497671782387371e-01  5.6949899108330870e-01  5.7311503828149135e-01  5.7587441146269214e-01  5.7782484594837391e-01  5.7901149804783758e-01  5.7947648473397173e-01  5.7925866875188592e-01  5.7839363115605880e-01  5.7691377851233527e-01  5.7484854037160227e-01  5.7222462181146061e-01  5.6906628444831209e-01  5.6539563669792126e-01  5.6123292002488556e-01  5.5659678249645672e-01  5.5150453434882263e-01  5.4597238269418846e-01  5.4001564417874970e-01  5.3364893552612858e-01  5.2688634259757006e-01  5.1974156906223246e-01  5.1222806598653137e-01  5.0435914376939250e-01  4.9614806787392940e-01  4.8760813977316991e-01  4.7875276446873499e-01  4.6959550586185328e-01  4.6015013116777209e-01  4.5043064548369471e-01  4.4045131753095224e-01  4.3022669752842618e-01  4.1977162808141710e-01  4.0910124893868177e-01  3.9823099641674464e-01  3.8717659831639534e-01  3.7595406513472329e-01  3.6457967845148637e-01  3.5306997742380797e-01  3.4144174444931064e-01  3.2971199121208394e-01  3.1789794652358100e-01  3.0601704763888710e-01  2.9408693702122368e-01  2.8212546690187712e-01  2.7015071437617005e-01  2.5818101020806994e-01  2.4623498494033855e-01  2.3433163627833561e-01  2.2249042194566290e-01  2.1073138221340898e-01  1.9907529589106615e-01  1.8754387256440136e-01  1.7615998198169627e-01  1.6494791842895321e-01  1.5393369332092011e-01  1.4314534270282717e-01  1.3261322760241193e-01  1.2237029399802204e-01  1.1245224566959426e-01  1.0289756788072064e-01  9.3747323692413467e-02  8.5044629399632740e-02  7.6833703233882347e-02  6.9158374451147947e-02  6.2059940194216061e-02  5.5574265611576093e-02  4.9728036528755265e-02  4.4534087277595287e-02  3.9985727192580617e-02  3.6049958175601707e-02  3.2659380376217739e-02  2.9702367862908467e-02  2.7010677061825573e-02  2.4342985251889545e-02  2.1361995361453386e-02  1.7599212339374462e-02  1.2371136847809102e-02  4.4692777576625852e-03  -7.3997986592573518e-03  4.0706927030628406e-02  -2.8650669593905292e-01  -1.2760814674628226e-01  8.8101620793184041e-03  1.0166331201630291e-01  1.6996500586544558e-01  2.2388553524754709e-01  2.6894977910145818e-01  3.0806138129774951e-01  3.4277917323640877e-01  3.7398087535864055e-01  4.0218588152329293e-01  4.2771902628825587e-01  4.5079995284921454e-01  4.7159418482664500e-01  4.9024228889085347e-01  5.0687560059240677e-01  5.2162352103099163e-01  5.3461566117088999e-01  5.4598109289480889e-01  5.5584626216421318e-01  5.6433258191771962e-01  5.7155430464751833e-01  5.7761696426983056e-01  5.8261646486849883e-01  5.8663876568788964e-01  5.8976004817820060e-01  5.9204723187863173e-01  5.9355871374404356e-01  5.9434522660467126e-01  5.9445073765182466e-01  5.9391333175868688e-01  5.9276604454306336e-01  5.9103762551108241e-01  5.8875322269332342e-01  5.8593498758062157e-01  5.8260260369950145e-01  5.7877374470359266e-01  5.7446446895574121e-01  5.6968955780701847e-01  5.6446280448754382e-01  5.5879725994756413e-01  5.5270544128931864e-01  5.4619950774132731e-01  5.3929140844809009e-01  5.3199300574628550e-01  5.2431617708669132e-01  5.1627289828527090e-01  5.0787531044216272e-01  4.9913577250871055e-01  4.9006690125810054e-01  4.8068160018585809e-01  4.7099307870694956e-01  4.6101486291311267e-01  4.5076079906055283e-01  4.4024505096014777e-01  4.2948209246040314e-01  4.1848669629922219e-01  4.0727392077339181e-01  3.9585909590347884e-01  3.8425781110410961e-01  3.7248590684539046e-01  3.6055947334193778e-01  3.4849486007223568e-01  3.3630870085811454e-01  3.2401796034198288e-01  3.1164000905409567e-01  2.9919273580803230e-01  2.8669470790319601e-01  2.7416539148291985e-01  2.6162544626115841e-01  2.4909711050747238e-01  2.3660469333591033e-01  2.2417519153379184e-01  2.1183904673741499e-01  1.9963105491407410e-01  1.8759143280134843e-01  1.7576703406756952e-01  1.6421269040216649e-01  1.5299262866988497e-01  1.4218188461393097e-01  1.3186759746926391e-01  1.2215003132578545e-01  1.1314313364675854e-01  1.0497441729386590e-01  9.7783950412621667e-02  9.1722270646449430e-02  8.6947117700786336e-02  8.3619010009839123e-02  8.1895882681213464e-02  8.1927261856902328e-02  8.3848798571847849e-02  8.7778502162113831e-02  9.3816930467463130e-02  1.0205555180617205e-01  1.1260226830461290e-01  1.2564576891509632e-01  1.4161731105933778e-01  1.6163723107892647e-01  1.8900206630626787e-01  2.3552993825216972e-01  3.5453466144384876e-01  -4.5080827697516540e-01  -3.4508126296140562e-01  -2.1321454369161238e-01  -9.8941249690772157e-02  -3.8534887981918511e-03  7.4457040878104064e-02  1.4004627442030940e-01  1.9626601833371488e-01  2.4540643925130504e-01  2.8893017526640313e-01  3.2776677952075872e-01  3.6252734493148076e-01  3.9363959611208837e-01  4.2142921190837795e-01  4.4616759538870904e-01  4.6809862113078943e-01  4.8745209370357134e-01  5.0444899459242731e-01  5.1930201100954310e-01  5.3221375545546201e-01  5.4337426415547230e-01  5.5295872643536625e-01  5.6112592191536181e-01  5.6801751375058451e-01  5.7375814365471811e-01  5.7845617085743695e-01  5.8220486310801634e-01  5.8508385669235119e-01  5.8716073318616868e-01  5.8849259876481685e-01  5.8912758855940406e-01  5.8910624943202428e-01  5.8846277816644987e-01  5.8722610877948556e-01  5.8542085348356243e-01  5.8306810816423082e-01  5.8018613633000604e-01  5.7679094643859508e-01  5.7289677709415709e-01  5.6851650347738814e-01  5.6366197686748309e-01  5.5834430756296660e-01  5.5257409996401397e-01  5.4636164722945002e-01  5.3971709171426852e-01  5.3265055636143521e-01  5.2517225138495394e-01  5.1729255986928280e-01  5.0902210534419468e-01  5.0037180395242609e-01  4.9135290345658889e-01  4.8197701110924335e-01  4.7225611220695629e-01  4.6220258107600815e-01  4.5182918624265084e-01  4.4114909159763827e-01  4.3017585559042315e-01  4.1892343072472304e-01  4.0740616612867347e-01  3.9563881646402027e-01  3.8363656126912532e-01  3.7141503975308993e-01  3.5899040725334513e-01  3.4637942110804970e-01  3.3359956537900115e-01  3.2066922602240455e-01  3.0760793043466000e-01  2.9443666792833090e-01  2.8117831042137215e-01  2.6785815526036005e-01  2.5450461427019311e-01  2.4115007436017658e-01  2.2783195452402336e-01  2.1459398090300708e-01  2.0148769448474091e-01  1.8857419354590702e-01  1.7592609361029182e-01  1.6362966022993605e-01  1.5178703370862476e-01  1.4051842079132362e-01  1.2996407928318857e-01  1.2028587362158320e-01  1.1166814232734497e-01  1.0431760555070153e-01  9.8462068950877918e-02  9.4347766053901397e-02  9.2235340066150098e-02  9.2394708773575127e-02  9.5099390913414419e-02  1.0062131572953871e-01  1.0922774288465446e-01  1.2118284455515906e-01  1.3675815627278698e-01  1.5625950650127662e-01  1.8008566965308806e-01  2.0885205508581509e-01  2.4365875508339457e-01  2.8671470016906830e-01  3.4292685512882998e-01  4.2389442754435469e-01  5.5458924966738177e-01  -6.0256350789862734e-01  -5.0405965228522920e-01  -3.8713057402128109e-01  -2.7093582576425967e-01  -1.6600913293510988e-01  -7.3328243657297010e-02  7.7752529036706269e-03  7.8764758917872907e-02  1.4123682775854940e-01  1.9656339958513169e-01  2.4579965192354264e-01  2.8972660774243020e-01  3.2892975781706185e-01  3.6386915866003333e-01  3.9492956115645994e-01  4.2245202762496342e-01  4.4675162511896849e-01  4.6812566319018484e-01  4.8685608310129730e-01  5.0320869516960920e-01  5.1743114759522435e-01  5.2975082673364460e-01  5.4037334966092343e-01  5.4948191752526465e-01  5.5723754090942890e-01  5.6378000306331622e-01  5.6922936481025532e-01  5.7368780800323960e-01  5.7724163890682689e-01  5.7996331116844668e-01  5.8191336862610399e-01  5.8314224455697028e-01  5.8369188325573806e-01  5.8359717148780454e-01  5.8288718213768764e-01  5.8158624154489746e-01  5.7971483698436599e-01  5.7729038275677214e-01  5.7432786343752595e-01  5.7084037175343527e-01  5.6683955689585397e-01  5.6233599713166438e-01  5.5733950869163229e-01  5.5185940109076181e-01  5.4590468744665555e-01  5.3948425697524471e-01  5.3260701566717239e-01  5.2528200017652427e-01  5.1751846917543498e-01  5.0932597578826855e-01  5.0071442424400858e-01  4.9169411354132259e-01  4.8227577068884447e-01  4.7247057598242742e-01  4.6229018278873696e-01  4.5174673445618668e-01  4.4085288125331507e-01  4.2962180063693045e-01  4.1806722482418524e-01  4.0620348037420839e-01  3.9404554559285920e-01  3.8160913285896997e-01  3.6891080457167086e-01  3.5596813339405886e-01  3.4279991973284341e-01  3.2942648203742114e-01  3.1587003843565004e-01  3.0215520130393120e-01  2.8830960948592771e-01  2.7436472558237862e-01  2.6035682760430207e-01  2.4632822456830103e-01  2.3232872330341994e-01  2.1841736762102842e-01  2.0466445953740567e-01  1.9115385383117003e-01  1.7798549035453998e-01  1.6527809223774448e-01  1.5317191264627963e-01  1.4183136027937468e-01  1.3144727947706916e-01  1.2223861355166167e-01  1.1445315285954812e-01  1.0836707894837329e-01  1.0428308165915970e-01  1.0252696523228300e-01  1.0344288604042436e-01  1.0738768649366245e-01  1.1472521253292275e-01  1.2582204353366072e-01  1.4104678633750217e-01  1.6077616590779056e-01  1.8541300761969068e-01  2.1542479296088374e-01  2.5141883073645083e-01  2.9428580908432111e-01  3.4547810674544704e-01  4.0756048842563158e-01  4.8524140649369962e-01  5.8668359299725215e-01  7.2314741347890299e-01  -7.4116924095964654e-01  -6.3924209253093267e-01  -5.3208119000444831e-01  -4.1921463568178169e-01  -3.1118050302692907e-01  -2.1133410384521753e-01  -1.2067579230838665e-01  -3.9036554588392267e-02  3.4209000756367181e-02  9.9839266952120059e-02  1.5862888990524310e-01  2.1127346402726158e-01  2.5837079340309221e-01  3.0043319236111354e-01  3.3790963259180407e-01  3.7120583428942350e-01  4.0069805985116524e-01  4.2674054444098075e-01  4.4966811849435251e-01  4.6979586810070412e-01  4.8741741180551706e-01  5.0280293133168041e-01  5.1619765487752378e-01  5.2782112995005892e-01  5.3786736198887264e-01  5.4650573168468553e-01  5.5388252051180398e-01  5.6012284842809390e-01  5.6533283879702334e-01  5.6960185606907709e-01  5.7300469924448971e-01  5.7560367075252616e-01  5.7745047195329657e-01  5.7858790131690663e-01  5.7905134946450287e-01  5.7887009745187123e-01  5.7806843214255310e-01  5.7666659640684914e-01  5.7468159331327795e-01  5.7212786324497178e-01  5.6901785171473607e-01  5.6536248392790811e-01  5.6117156028053650e-01  5.5645408508358518e-01  5.5121853906477103e-01  5.4547310460934817e-01  5.3922585134985634e-01  5.3248488856051135e-01  5.2525848985479495e-01  5.1755519491048285e-01  5.0938389239847182e-01  5.0075388779495611e-01  4.9167495956866170e-01  4.8215740704595439e-01  4.7221209334850889e-01  4.6185048696742431e-01  4.5108470591436484e-01  4.3992756899059221e-01  4.2839265942585064e-01  4.1649440726022691e-01  4.0424819802797451e-01  3.9167051700856065e-01  3.7877914015229025e-01  3.6559338511950096e-01  3.5213443846571485e-01  3.3842577790247969e-01  3.2449371168485242e-01  3.1036806026509400e-01  2.9608300815658822e-01  2.8167815600024115e-01  2.6719980341267580e-01  2.5270249148400742e-01  2.3825082855954624e-01  2.2392161284276166e-01  2.0980624882288804e-01  1.9601343009207967e-01  1.8267202767312749e-01  1.6993408036653265e-01  1.5797773331892340e-01  1.4700991696508628e-01  1.3726850798470205e-01  1.2902367802183490e-01  1.2257812951530228e-01  1.1826595841457271e-01  1.1644998837742385e-01  1.1751760458211570e-01  1.2187538550021729e-01  1.2994318865689614e-01  1.4214878992061994e-01  1.5892471575002526e-01  1.8070959606338055e-01  2.0795734619807679e-01  2.4115907958175670e-01  2.8088548855280798e-01  3.2786265106563905e-01  3.8310355675316460e-01  4.4813148431873057e-01  5.2533409069234627e-01  6.1838431066141075e-01  7.3220949433384275e-01  8.7215730638342204e-01  -8.6979495114194405e-01  -7.6366938488126201e-01  -6.5916942175672899e-01  -5.5032599797225001e-01  -4.4224859737769984e-01  -3.3906487061935603e-01  -2.4266937965078472e-01  -1.5381078320225861e-01  -7.2569685206750473e-02  1.3099596141935412e-03  6.8235784033881461e-02  1.2867280135823661e-01  1.8309559382983417e-01  2.3196588709714189e-01  2.7572495735838182e-01  3.1479344174312346e-01  3.4957330436553025e-01  3.8044911347233357e-01  4.0778773526076784e-01  4.3193668111167777e-01  4.5322177766399147e-01  4.7194483998228981e-01  4.8838184953719543e-01  5.0278191493855273e-01  5.1536709713283657e-01  5.2633303977746948e-01  5.3585026225435739e-01  5.4406593763772126e-01  5.5110597722998123e-01  5.5707726361179444e-01  5.6206990472120644e-01  5.6615941449536700e-01  5.6940875631062104e-01  5.7187021132225713e-01  5.7358705401548560e-01  5.7459503199956019e-01  5.7492365704001969e-01  5.7459732047180390e-01  5.7363624940308089e-01  5.7205732135297493e-01  5.6987475483140249e-01  5.6710069241483496e-01  5.6374569144426501e-01  5.5981913587653787e-01  5.5532958118436793e-01  5.5028504266581846e-01  5.4469323613288811e-01  5.3856177873220346e-01  5.3189835661359108e-01  5.2471086534653566e-01  5.1700752830466079e-01  5.0879699777698295e-01  5.0008844328151525e-01  4.9089163142540493e-01  4.8121700174629367e-01  4.7107574320863055e-01  4.6047987651761135e-01  4.4944234809592870e-01  4.3797714247830244e-01  4.2609942112001248e-01  4.1382569704334871e-01  4.0117405659484306e-01  3.8816444164212982e-01  3.7481900799155804e-01  3.6116257845494992e-01  3.4722321182269622e-01  3.3303291182752243e-01  3.1862850271384746e-01  3.0405269984125743e-01  2.8935540429918044e-01  2.7459524897621995e-01  2.5984141888690826e-01  2.4517575966240782e-01  2.3069517355758323e-01  2.1651428083280355e-01  2.0276829491416454e-01  1.8961602199838470e-01  1.7724285073870916e-01  1.6586354826606947e-01  1.5572463068049419e-01  1.4710603809783301e-01  1.4032182838711132e-01  1.3571962441797053e-01  1.3367862214574316e-01  1.3460610429555300e-01  1.3893261442315064e-01  1.4710622848784999e-01  1.5958670781425888e-01  1.7684071800392359e-01  1.9933975230779682e-01  2.2756293445127992e-01  2.6200758073387403e-01  3.0321144256485028e-01  3.5179217421753878e-01  4.0851193628223637e-01  4.7437735969798794e-01  5.5078207398377810e-01  6.3966999077848263e-01  7.4358951121057648e-01  8.6531372085650349e-01  1.0075932904671936e+00  -9.9115767305004299e-01  -8.8152903122792881e-01  -7.7617963575269289e-01  -6.6959122798902215e-01  -5.6237241231057888e-01  -4.5782922192524911e-01  -3.5810219027399393e-01  -2.6442616115884732e-01  -1.7737870316416826e-01  -9.7121785997747387e-02  -2.3568024852780339e-02  4.3513199179508917e-02  1.0443285320424368e-01  1.5954614735990127e-01  2.0923135620077962e-01  2.5387679580466316e-01  2.9387226812376965e-01  3.2960282958003284e-01  3.6144367733673116e-01  3.8975562710008854e-01  4.1488110152270091e-01  4.3714075977413708e-01  4.5683093435515421e-01  4.7422197998303667e-01  4.8955754652954803e-01  5.0305470318762169e-01  5.1490478197492584e-01  5.2527477868353123e-01  5.3430914421885967e-01  5.4213181184048609e-01  5.4884832883994905e-01  5.5454798861892463e-01  5.5930588660764957e-01  5.6318484824270920e-01  5.6623719793042071e-01  5.6850635415734385e-01  5.7002824788493767e-01  5.7083256964472606e-01  5.7094385603317288e-01  5.7038242930289251e-01  5.6916520505257473e-01  5.6730638320517224e-01  5.6481803688606091e-01  5.6171061283287793e-01  5.5799335574360143e-01  5.5367466771857354e-01  5.4876241271248027e-01  5.4326417477995681e-01  5.3718747792427568e-01  5.3053997451235291e-01  5.2332960857225264e-01  5.1556475982990047e-01  5.0725437402645568e-01  4.9840808501095901e-01  4.8903633417682352e-01  4.7915049316077885e-01  4.6876299626116757e-01  4.5788748981311450e-01  4.4653900680887615e-01  4.3473417632580896e-01  4.2249147893396383e-01  4.0983156104768603e-01  3.9677762334803940e-01  3.8335590061746683e-01  3.6959625278937197e-01  3.5553288932148464e-01  3.4120525104106114e-01  3.2665907498760427e-01  3.1194766795844675e-01  2.9713341282945327e-01  2.8228952740081398e-01  2.6750208751250582e-01  2.5287231342160188e-01  2.3851909982188449e-01  2.2458174461947950e-01  2.1122279934227262e-01  1.9863092559409040e-01  1.8702359944000377e-01  1.7664946330994777e-01  1.6779008962159936e-01  1.6076090113528543e-01  1.5591100139422118e-01  1.5362171663278937e-01  1.5430374909055197e-01  1.5839299752855679e-01  1.6634531393274679e-01  1.7863072774618161e-01  1.9572796519539587e-01  2.1812040384784750e-01  2.4629492015175192e-01  2.8074541538143283e-01  3.2198316891677348e-01  3.7055659506334809e-01  4.2708340879147888e-01  4.9229817429041295e-01  5.6711593727482468e-01  6.5270281744142222e-01  7.5051526420017722e-01  8.6220842657416663e-01  9.8927402550476695e-01  1.1331796939025247e+00  -1.1071112497236850e+00  -9.9460114757658546e-01  -8.8721481715117034e-01  -7.8096225563727917e-01  -6.7440383733289389e-01  -5.6931339861070107e-01  -4.6763237989031575e-01  -3.7074309260059546e-01  -2.7950559595694502e-01  -1.9437292303101192e-01  -1.1551218054411991e-01  -4.2897888539493070e-02  2.3623229018558740e-02  8.4288960237103236e-02  1.3939279932761178e-01  1.8926411487553382e-01  2.3425365227900447e-01  2.7472229965166034e-01  3.1103204129568501e-01  3.4353855579581905e-01  3.7258518958417980e-01  3.9849817636330187e-01  4.2158303234932948e-01  4.4212206515657021e-01  4.6037291330062746e-01  4.7656800325317727e-01  4.9091478518454135e-01  5.0359659385445088e-01  5.1477397914026990e-01  5.2458635979881618e-01  5.3315387104215284e-01  5.4057929793748227e-01  5.4695000946365457e-01  5.5233982998399256e-01  5.5681080445324327e-01  5.6041483009253912e-01  5.6319514033653151e-01  5.6518763673271344e-01  5.6642207155505753e-01  5.6692308864455843e-01  5.6671113292606523e-01  5.6580324058956954e-01  5.6421372250053858e-01  5.6195475330241640e-01  5.5903687814060399e-01  5.5546944817882904e-01  5.5126099520467786e-01  5.4641955474006232e-01  5.4095294626333901e-01  5.3486901841624634e-01  5.2817586651068305e-01  5.2088202922947835e-01  5.1299667117482106e-01  5.0452975789091503e-01  4.9549223013907862e-01  4.8589618459311129e-01  4.7575506871683643e-01  4.6508389843259096e-01  4.5389950825219710e-01  4.4222084484085183e-01  4.3006931652030034e-01  4.1746921290340849e-01  4.0444821072310300e-01  3.9103798376173093e-01  3.7727493656592243e-01  3.6320108305557697e-01  3.4886509189080012e-01  3.3432352017400058e-01  3.1964225512878497e-01  3.0489817917235468e-01  2.9018106649531739e-01  2.7559570801504596e-01  2.6126424560662842e-01  2.4732867519855861e-01  2.3395345150161709e-01  2.2132809539147411e-01  2.0966967000051068e-01  1.9922495658401368e-01  1.9027213124650671e-01  1.8312172550189873e-01  1.7811665585350173e-01  1.7563113924363158e-01  1.7606838064234417e-01  1.7985703168254280e-01  1.8744657548150667e-01  1.9930198620238004e-01  2.1589822885781276e-01  2.3771538614998872e-01  2.6523540381873129e-01  2.9894161597029423e-01  3.3932233390244804e-01  3.8687983817791460e-01  4.4214604351642223e-01  5.0570569890511197e-01  5.7822662248800816e-01  6.6049260599660542e-01  7.5342516670144510e-01  8.5806159295430873e-01  9.7543122493774981e-01  1.1062769940701247e+00  1.2513609757275310e+00  -1.2188432952927790e+00  -1.1038829266328649e+00  -9.9420288116921463e-01  -8.8705839319207269e-01  -7.8051923897619246e-01  -6.7506185144258435e-01  -5.7213528860762064e-01  -4.7304381955740199e-01  -3.7875349849711254e-01  -2.8989027313655563e-01  -2.0680184064299939e-01  -1.2962516497634832e-01  -5.8343226837258122e-02  7.1717545495843717e-03  6.7126444236104379e-02  1.2178275422072476e-01  1.7143984906158205e-01  2.1641998811222909e-01  2.5705709723338166e-01  2