<?xml version="1.0"?>
<VTKFile type="UnstructuredGrid"  version="0.1"  >
<UnstructuredGrid>
<Piece  NumberOfPoints="5101" NumberOfCells="10000">
<Points>
<DataArray  type="Float64"  NumberOfComponents="3"  format="ascii">0 0 0  0.2 0 0  0.4 0 0  0.6 0 0  0.8 0 0  1 0 0  1.2 0 0  1.4 0 0  1.6 0 0  1.8 0 0  2 0 0  2.2 0 0  2.4 0 0  2.6 0 0  2.8 0 0  3 0 0  3.2 0 0  3.4 0 0  3.6 0 0  3.8 0 0  4 0 0  4.2 0 0  4.4 0 0  4.6 0 0  4.8 0 0  5 0 0  5.2 0 0  5.4 0 0  5.6 0 0  5.8 0 0  6 0 0  6.2 0 0  6.4 0 0  6.6 0 0  6.8 0 0  7 0 0  7.2 0 0  7.4 0 0  7.6 0 0  7.8 0 0  8 0 0  8.199999999999999 0 0  8.4 0 0  8.6 0 0  8.800000000000001 0 0  9 0 0  9.199999999999999 0 0  9.4 0 0  9.6 0 0  9.800000000000001 0 0  10 0 0  0 0.2 0  0.2 0.2 0  0.4 0.2 0  0.6 0.2 0  0.8 0.2 0  1 0.2 0  1.2 0.2 0  1.4 0.2 0  1.6 0.2 0  1.8 0.2 0  2 0.2 0  2.2 0.2 0  2.4 0.2 0  2.6 0.2 0  2.8 0.2 0  3 0.2 0  3.2 0.2 0  3.4 0.2 0  3.6 0.2 0  3.8 0.2 0  4 0.2 0  4.2 0.2 0  4.4 0.2 0  4.6 0.2 0  4.8 0.2 0  5 0.2 0  5.2 0.2 0  5.4 0.2 0  5.6 0.2 0  5.8 0.2 0  6 0.2 0  6.2 0.2 0  6.4 0.2 0  6.6 0.2 0  6.8 0.2 0  7 0.2 0  7.2 0.2 0  7.4 0.2 0  7.6 0.2 0  7.8 0.2 0  8 0.2 0  8.199999999999999 0.2 0  8.4 0.2 0  8.6 0.2 0  8.800000000000001 0.2 0  9 0.2 0  9.199999999999999 0.2 0  9.4 0.2 0  9.6 0.2 0  9.800000000000001 0.2 0  10 0.2 0  0 0.4 0  0.2 0.4 0  0.4 0.4 0  0.6 0.4 0  0.8 0.4 0  1 0.4 0  1.2 0.4 0  1.4 0.4 0  1.6 0.4 0  1.8 0.4 0  2 0.4 0  2.2 0.4 0  2.4 0.4 0  2.6 0.4 0  2.8 0.4 0  3 0.4 0  3.2 0.4 0  3.4 0.4 0  3.6 0.4 0  3.8 0.4 0  4 0.4 0  4.2 0.4 0  4.4 0.4 0  4.6 0.4 0  4.8 0.4 0  5 0.4 0  5.2 0.4 0  5.4 0.4 0  5.6 0.4 0  5.8 0.4 0  6 0.4 0  6.2 0.4 0  6.4 0.4 0  6.6 0.4 0  6.8 0.4 0  7 0.4 0  7.2 0.4 0  7.4 0.4 0  7.6 0.4 0  7.8 0.4 0  8 0.4 0  8.199999999999999 0.4 0  8.4 0.4 0  8.6 0.4 0  8.800000000000001 0.4 0  9 0.4 0  9.199999999999999 0.4 0  9.4 0.4 0  9.6 0.4 0  9.800000000000001 0.4 0  10 0.4 0  0 0.6 0  0.2 0.6 0  0.4 0.6 0  0.6 0.6 0  0.8 0.6 0  1 0.6 0  1.2 0.6 0  1.4 0.6 0  1.6 0.6 0  1.8 0.6 0  2 0.6 0  2.2 0.6 0  2.4 0.6 0  2.6 0.6 0  2.8 0.6 0  3 0.6 0  3.2 0.6 0  3.4 0.6 0  3.6 0.6 0  3.8 0.6 0  4 0.6 0  4.2 0.6 0  4.4 0.6 0  4.6 0.6 0  4.8 0.6 0  5 0.6 0  5.2 0.6 0  5.4 0.6 0  5.6 0.6 0  5.8 0.6 0  6 0.6 0  6.2 0.6 0  6.4 0.6 0  6.6 0.6 0  6.8 0.6 0  7 0.6 0  7.2 0.6 0  7.4 0.6 0  7.6 0.6 0  7.8 0.6 0  8 0.6 0  8.199999999999999 0.6 0  8.4 0.6 0  8.6 0.6 0  8.800000000000001 0.6 0  9 0.6 0  9.199999999999999 0.6 0  9.4 0.6 0  9.6 0.6 0  9.800000000000001 0.6 0  10 0.6 0  0 0.8 0  0.2 0.8 0  0.4 0.8 0  0.6 0.8 0  0.8 0.8 0  1 0.8 0  1.2 0.8 0  1.4 0.8 0  1.6 0.8 0  1.8 0.8 0  2 0.8 0  2.2 0.8 0  2.4 0.8 0  2.6 0.8 0  2.8 0.8 0  3 0.8 0  3.2 0.8 0  3.4 0.8 0  3.6 0.8 0  3.8 0.8 0  4 0.8 0  4.2 0.8 0  4.4 0.8 0  4.6 0.8 0  4.8 0.8 0  5 0.8 0  5.2 0.8 0  5.4 0.8 0  5.6 0.8 0  5.8 0.8 0  6 0.8 0  6.2 0.8 0  6.4 0.8 0  6.6 0.8 0  6.8 0.8 0  7 0.8 0  7.2 0.8 0  7.4 0.8 0  7.6 0.8 0  7.8 0.8 0  8 0.8 0  8.199999999999999 0.8 0  8.4 0.8 0  8.6 0.8 0  8.800000000000001 0.8 0  9 0.8 0  9.199999999999999 0.8 0  9.4 0.8 0  9.6 0.8 0  9.800000000000001 0.8 0  10 0.8 0  0 1 0  0.2 1 0  0.4 1 0  0.6 1 0  0.8 1 0  1 1 0  1.2 1 0  1.4 1 0  1.6 1 0  1.8 1 0  2 1 0  2.2 1 0  2.4 1 0  2.6 1 0  2.8 1 0  3 1 0  3.2 1 0  3.4 1 0  3.6 1 0  3.8 1 0  4 1 0  4.2 1 0  4.4 1 0  4.6 1 0  4.8 1 0  5 1 0  5.2 1 0  5.4 1 0  5.6 1 0  5.8 1 0  6 1 0  6.2 1 0  6.4 1 0  6.6 1 0  6.8 1 0  7 1 0  7.2 1 0  7.4 1 0  7.6 1 0  7.8 1 0  8 1 0  8.199999999999999 1 0  8.4 1 0  8.6 1 0  8.800000000000001 1 0  9 1 0  9.199999999999999 1 0  9.4 1 0  9.6 1 0  9.800000000000001 1 0  10 1 0  0 1.2 0  0.2 1.2 0  0.4 1.2 0  0.6 1.2 0  0.8 1.2 0  1 1.2 0  1.2 1.2 0  1.4 1.2 0  1.6 1.2 0  1.8 1.2 0  2 1.2 0  2.2 1.2 0  2.4 1.2 0  2.6 1.2 0  2.8 1.2 0  3 1.2 0  3.2 1.2 0  3.4 1.2 0  3.6 1.2 0  3.8 1.2 0  4 1.2 0  4.2 1.2 0  4.4 1.2 0  4.6 1.2 0  4.8 1.2 0  5 1.2 0  5.2 1.2 0  5.4 1.2 0  5.6 1.2 0  5.8 1.2 0  6 1.2 0  6.2 1.2 0  6.4 1.2 0  6.6 1.2 0  6.8 1.2 0  7 1.2 0  7.2 1.2 0  7.4 1.2 0  7.6 1.2 0  7.8 1.2 0  8 1.2 0  8.199999999999999 1.2 0  8.4 1.2 0  8.6 1.2 0  8.800000000000001 1.2 0  9 1.2 0  9.199999999999999 1.2 0  9.4 1.2 0  9.6 1.2 0  9.800000000000001 1.2 0  10 1.2 0  0 1.4 0  0.2 1.4 0  0.4 1.4 0  0.6 1.4 0  0.8 1.4 0  1 1.4 0  1.2 1.4 0  1.4 1.4 0  1.6 1.4 0  1.8 1.4 0  2 1.4 0  2.2 1.4 0  2.4 1.4 0  2.6 1.4 0  2.8 1.4 0  3 1.4 0  3.2 1.4 0  3.4 1.4 0  3.6 1.4 0  3.8 1.4 0  4 1.4 0  4.2 1.4 0  4.4 1.4 0  4.6 1.4 0  4.8 1.4 0  5 1.4 0  5.2 1.4 0  5.4 1.4 0  5.6 1.4 0  5.8 1.4 0  6 1.4 0  6.2 1.4 0  6.4 1.4 0  6.6 1.4 0  6.8 1.4 0  7 1.4 0  7.2 1.4 0  7.4 1.4 0  7.6 1.4 0  7.8 1.4 0  8 1.4 0  8.199999999999999 1.4 0  8.4 1.4 0  8.6 1.4 0  8.800000000000001 1.4 0  9 1.4 0  9.199999999999999 1.4 0  9.4 1.4 0  9.6 1.4 0  9.800000000000001 1.4 0  10 1.4 0  0 1.6 0  0.2 1.6 0  0.4 1.6 0  0.6 1.6 0  0.8 1.6 0  1 1.6 0  1.2 1.6 0  1.4 1.6 0  1.6 1.6 0  1.8 1.6 0  2 1.6 0  2.2 1.6 0  2.4 1.6 0  2.6 1.6 0  2.8 1.6 0  3 1.6 0  3.2 1.6 0  3.4 1.6 0  3.6 1.6 0  3.8 1.6 0  4 1.6 0  4.2 1.6 0  4.4 1.6 0  4.6 1.6 0  4.8 1.6 0  5 1.6 0  5.2 1.6 0  5.4 1.6 0  5.6 1.6 0  5.8 1.6 0  6 1.6 0  6.2 1.6 0  6.4 1.6 0  6.6 1.6 0  6.8 1.6 0  7 1.6 0  7.2 1.6 0  7.4 1.6 0  7.6 1.6 0  7.8 1.6 0  8 1.6 0  8.199999999999999 1.6 0  8.4 1.6 0  8.6 1.6 0  8.800000000000001 1.6 0  9 1.6 0  9.199999999999999 1.6 0  9.4 1.6 0  9.6 1.6 0  9.800000000000001 1.6 0  10 1.6 0  0 1.8 0  0.2 1.8 0  0.4 1.8 0  0.6 1.8 0  0.8 1.8 0  1 1.8 0  1.2 1.8 0  1.4 1.8 0  1.6 1.8 0  1.8 1.8 0  2 1.8 0  2.2 1.8 0  2.4 1.8 0  2.6 1.8 0  2.8 1.8 0  3 1.8 0  3.2 1.8 0  3.4 1.8 0  3.6 1.8 0  3.8 1.8 0  4 1.8 0  4.2 1.8 0  4.4 1.8 0  4.6 1.8 0  4.8 1.8 0  5 1.8 0  5.2 1.8 0  5.4 1.8 0  5.6 1.8 0  5.8 1.8 0  6 1.8 0  6.2 1.8 0  6.4 1.8 0  6.6 1.8 0  6.8 1.8 0  7 1.8 0  7.2 1.8 0  7.4 1.8 0  7.6 1.8 0  7.8 1.8 0  8 1.8 0  8.199999999999999 1.8 0  8.4 1.8 0  8.6 1.8 0  8.800000000000001 1.8 0  9 1.8 0  9.199999999999999 1.8 0  9.4 1.8 0  9.6 1.8 0  9.800000000000001 1.8 0  10 1.8 0  0 2 0  0.2 2 0  0.4 2 0  0.6 2 0  0.8 2 0  1 2 0  1.2 2 0  1.4 2 0  1.6 2 0  1.8 2 0  2 2 0  2.2 2 0  2.4 2 0  2.6 2 0  2.8 2 0  3 2 0  3.2 2 0  3.4 2 0  3.6 2 0  3.8 2 0  4 2 0  4.2 2 0  4.4 2 0  4.6 2 0  4.8 2 0  5 2 0  5.2 2 0  5.4 2 0  5.6 2 0  5.8 2 0  6 2 0  6.2 2 0  6.4 2 0  6.6 2 0  6.8 2 0  7 2 0  7.2 2 0  7.4 2 0  7.6 2 0  7.8 2 0  8 2 0  8.199999999999999 2 0  8.4 2 0  8.6 2 0  8.800000000000001 2 0  9 2 0  9.199999999999999 2 0  9.4 2 0  9.6 2 0  9.800000000000001 2 0  10 2 0  0 2.2 0  0.2 2.2 0  0.4 2.2 0  0.6 2.2 0  0.8 2.2 0  1 2.2 0  1.2 2.2 0  1.4 2.2 0  1.6 2.2 0  1.8 2.2 0  2 2.2 0  2.2 2.2 0  2.4 2.2 0  2.6 2.2 0  2.8 2.2 0  3 2.2 0  3.2 2.2 0  3.4 2.2 0  3.6 2.2 0  3.8 2.2 0  4 2.2 0  4.2 2.2 0  4.4 2.2 0  4.6 2.2 0  4.8 2.2 0  5 2.2 0  5.2 2.2 0  5.4 2.2 0  5.6 2.2 0  5.8 2.2 0  6 2.2 0  6.2 2.2 0  6.4 2.2 0  6.6 2.2 0  6.8 2.2 0  7 2.2 0  7.2 2.2 0  7.4 2.2 0  7.6 2.2 0  7.8 2.2 0  8 2.2 0  8.199999999999999 2.2 0  8.4 2.2 0  8.6 2.2 0  8.800000000000001 2.2 0  9 2.2 0  9.199999999999999 2.2 0  9.4 2.2 0  9.6 2.2 0  9.800000000000001 2.2 0  10 2.2 0  0 2.4 0  0.2 2.4 0  0.4 2.4 0  0.6 2.4 0  0.8 2.4 0  1 2.4 0  1.2 2.4 0  1.4 2.4 0  1.6 2.4 0  1.8 2.4 0  2 2.4 0  2.2 2.4 0  2.4 2.4 0  2.6 2.4 0  2.8 2.4 0  3 2.4 0  3.2 2.4 0  3.4 2.4 0  3.6 2.4 0  3.8 2.4 0  4 2.4 0  4.2 2.4 0  4.4 2.4 0  4.6 2.4 0  4.8 2.4 0  5 2.4 0  5.2 2.4 0  5.4 2.4 0  5.6 2.4 0  5.8 2.4 0  6 2.4 0  6.2 2.4 0  6.4 2.4 0  6.6 2.4 0  6.8 2.4 0  7 2.4 0  7.2 2.4 0  7.4 2.4 0  7.6 2.4 0  7.8 2.4 0  8 2.4 0  8.199999999999999 2.4 0  8.4 2.4 0  8.6 2.4 0  8.800000000000001 2.4 0  9 2.4 0  9.199999999999999 2.4 0  9.4 2.4 0  9.6 2.4 0  9.800000000000001 2.4 0  10 2.4 0  0 2.6 0  0.2 2.6 0  0.4 2.6 0  0.6 2.6 0  0.8 2.6 0  1 2.6 0  1.2 2.6 0  1.4 2.6 0  1.6 2.6 0  1.8 2.6 0  2 2.6 0  2.2 2.6 0  2.4 2.6 0  2.6 2.6 0  2.8 2.6 0  3 2.6 0  3.2 2.6 0  3.4 2.6 0  3.6 2.6 0  3.8 2.6 0  4 2.6 0  4.2 2.6 0  4.4 2.6 0  4.6 2.6 0  4.8 2.6 0  5 2.6 0  5.2 2.6 0  5.4 2.6 0  5.6 2.6 0  5.8 2.6 0  6 2.6 0  6.2 2.6 0  6.4 2.6 0  6.6 2.6 0  6.8 2.6 0  7 2.6 0  7.2 2.6 0  7.4 2.6 0  7.6 2.6 0  7.8 2.6 0  8 2.6 0  8.199999999999999 2.6 0  8.4 2.6 0  8.6 2.6 0  8.800000000000001 2.6 0  9 2.6 0  9.199999999999999 2.6 0  9.4 2.6 0  9.6 2.6 0  9.800000000000001 2.6 0  10 2.6 0  0 2.8 0  0.2 2.8 0  0.4 2.8 0  0.6 2.8 0  0.8 2.8 0  1 2.8 0  1.2 2.8 0  1.4 2.8 0  1.6 2.8 0  1.8 2.8 0  2 2.8 0  2.2 2.8 0  2.4 2.8 0  2.6 2.8 0  2.8 2.8 0  3 2.8 0  3.2 2.8 0  3.4 2.8 0  3.6 2.8 0  3.8 2.8 0  4 2.8 0  4.2 2.8 0  4.4 2.8 0  4.6 2.8 0  4.8 2.8 0  5 2.8 0  5.2 2.8 0  5.4 2.8 0  5.6 2.8 0  5.8 2.8 0  6 2.8 0  6.2 2.8 0  6.4 2.8 0  6.6 2.8 0  6.8 2.8 0  7 2.8 0  7.2 2.8 0  7.4 2.8 0  7.6 2.8 0  7.8 2.8 0  8 2.8 0  8.199999999999999 2.8 0  8.4 2.8 0  8.6 2.8 0  8.800000000000001 2.8 0  9 2.8 0  9.199999999999999 2.8 0  9.4 2.8 0  9.6 2.8 0  9.800000000000001 2.8 0  10 2.8 0  0 3 0  0.2 3 0  0.4 3 0  0.6 3 0  0.8 3 0  1 3 0  1.2 3 0  1.4 3 0  1.6 3 0  1.8 3 0  2 3 0  2.2 3 0  2.4 3 0  2.6 3 0  2.8 3 0  3 3 0  3.2 3 0  3.4 3 0  3.6 3 0  3.8 3 0  4 3 0  4.2 3 0  4.4 3 0  4.6 3 0  4.8 3 0  5 3 0  5.2 3 0  5.4 3 0  5.6 3 0  5.8 3 0  6 3 0  6.2 3 0  6.4 3 0  6.6 3 0  6.8 3 0  7 3 0  7.2 3 0  7.4 3 0  7.6 3 0  7.8 3 0  8 3 0  8.199999999999999 3 0  8.4 3 0  8.6 3 0  8.800000000000001 3 0  9 3 0  9.199999999999999 3 0  9.4 3 0  9.6 3 0  9.800000000000001 3 0  10 3 0  0 3.2 0  0.2 3.2 0  0.4 3.2 0  0.6 3.2 0  0.8 3.2 0  1 3.2 0  1.2 3.2 0  1.4 3.2 0  1.6 3.2 0  1.8 3.2 0  2 3.2 0  2.2 3.2 0  2.4 3.2 0  2.6 3.2 0  2.8 3.2 0  3 3.2 0  3.2 3.2 0  3.4 3.2 0  3.6 3.2 0  3.8 3.2 0  4 3.2 0  4.2 3.2 0  4.4 3.2 0  4.6 3.2 0  4.8 3.2 0  5 3.2 0  5.2 3.2 0  5.4 3.2 0  5.6 3.2 0  5.8 3.2 0  6 3.2 0  6.2 3.2 0  6.4 3.2 0  6.6 3.2 0  6.8 3.2 0  7 3.2 0  7.2 3.2 0  7.4 3.2 0  7.6 3.2 0  7.8 3.2 0  8 3.2 0  8.199999999999999 3.2 0  8.4 3.2 0  8.6 3.2 0  8.800000000000001 3.2 0  9 3.2 0  9.199999999999999 3.2 0  9.4 3.2 0  9.6 3.2 0  9.800000000000001 3.2 0  10 3.2 0  0 3.4 0  0.2 3.4 0  0.4 3.4 0  0.6 3.4 0  0.8 3.4 0  1 
[...]
<PointData  Scalars="f_5"> 
<DataArray  type="Float64"  Name="f_5"  format="ascii">3.0443961640667452e-02  2.4044638357793108e-01  3.5402438730950681e-01  4.2858381992413475e-01  4.8158208677433945e-01  5.2041429050741816e-01  5.4942817518279030e-01  5.7130251884814709e-01  5.8780127558538497e-01  6.0013307555519246e-01  6.0915821346511767e-01  6.1551484259035316e-01  6.1969892873837007e-01  6.2211597876944247e-01  6.2311446305340001e-01  6.2300678752720895e-01  6.2208147909941358e-01  6.2060901416274039e-01  6.1884301679757847e-01  6.1701815883323718e-01  6.1534588010466096e-01  6.1400893033233606e-01  6.1315565344144130e-01  6.1289484564153462e-01  6.1329188966629966e-01  6.1436668536162853e-01  6.1609366563085655e-01  6.1840392769815644e-01  6.2118925508871159e-01  6.2430759032218885e-01  6.2758936916287034e-01  6.3084405599505833e-01  6.3386621937507492e-01  6.3644053304603887e-01  6.3834514558037514e-01  6.3935289199438816e-01  6.3922978444732437e-01  6.3773007887278710e-01  6.3458692776503633e-01  6.2949713544800689e-01  6.2209772437224020e-01  6.1193069369341324e-01  5.9839008699971852e-01  5.8064137343888544e-01  5.5749502303141407e-01  5.2719960670970201e-01  4.8708256438721792e-01  4.3279646473477990e-01  3.5694038482733664e-01  2.4204237934511605e-01  3.0732040746040100e-02  1.3953158404759207e-02  1.4471650197545921e-01  2.3585248520034818e-01  3.0437332514995413e-01  3.5353379610852431e-01  3.9023194889091950e-01  4.1778810807064565e-01  4.3861091316384271e-01  4.5430879355326437e-01  4.6600453361501343e-01  4.7450801833028472e-01  4.8042515933290281e-01  4.8423012849795105e-01  4.8631321627086371e-01  4.8701226991349933e-01  4.8663261430714611e-01  4.8545860966844645e-01  4.8375900669039751e-01  4.8178769048353859e-01  4.7978108875540820e-01  4.7795335337361183e-01  4.7649033709594285e-01  4.7554332501442437e-01  4.7522340054945128e-01  4.7559719807171191e-01  4.7668460384936856e-01  4.7845871887040481e-01  4.8084811514775883e-01  4.8374113871958901e-01  4.8699177808272393e-01  4.9042645775163923e-01  4.9385104622383824e-01  4.9705737704289532e-01  4.9982864288586959e-01  5.0194309625086952e-01  5.0317553468266796e-01  5.0329602620435376e-01  5.0206520997139259e-01  4.9922525628348846e-01  4.9448514383162440e-01  4.8749822985119984e-01  4.7782899585534011e-01  4.6490402728592611e-01  4.4793918265766947e-01  4.2583052053653697e-01  3.9698172073257115e-01  3.5898988606454690e-01  3.0853457692228131e-01  2.3871235025355636e-01  1.4625326831256824e-01  1.4150424620924057e-02  6.6392206307501834e-03  9.1203608211518267e-02  1.5871466750526259e-01  2.1299720496621605e-01  2.5463946327571624e-01  2.8642928078686236e-01  3.1063513453589497e-01  3.2898440728496381e-01  3.4274898512172586e-01  3.5286434574118963e-01  3.6002948665784157e-01  3.6478229962856795e-01  3.6755393504591688e-01  3.6870708430198956e-01  3.6856213394732784e-01  3.6741408001862397e-01  3.6554229509528791e-01  3.6321470052893928e-01  3.6068756957624942e-01  3.5820202136560714e-01  3.5597820989190770e-01  3.5420821682224207e-01  3.5304867129108497e-01  3.5261409522463127e-01  3.5297186927685958e-01  3.5413951136805888e-01  3.5608466331706451e-01  3.5872782594886388e-01  3.6194752507289640e-01  3.6558729099255949e-01  3.6946364084768557e-01  3.7337418678997508e-01  3.7710504175649645e-01  3.8043681910995569e-01  3.8314866880430004e-01  3.8501990727554603e-01  3.8582883820009761e-01  3.8534829867150211e-01  3.8333728357493968e-01  3.7952768599669612e-01  3.7360472200144845e-01  3.6517895075733475e-01  3.5374692212321523e-01  3.3863636960061450e-01  3.1893087442207091e-01  2.9337031348046133e-01  2.6023233373927462e-01  2.1724740557802161e-01  1.6162285150760150e-01  9.2750489130890110e-02  6.8426285373197303e-03  4.1784675781243808e-03  5.8724859262241393e-02  1.0565476385307059e-01  1.4618223697795252e-01  1.7871563745616956e-01  2.0431767423595293e-01  2.2407622429437102e-01  2.3906075143648697e-01  2.5015509749293174e-01  2.5806230919825174e-01  2.6333852467419855e-01  2.6643146560149372e-01  2.6771441538432011e-01  2.6751299587556998e-01  2.6612473889193605e-01  2.6383217615227611e-01  2.6091027904100100e-01  2.5762902490169848e-01  2.5425182201353486e-01  2.5103055146972802e-01  2.4819808615151717e-01  2.4595929615595585e-01  2.4448169374622025e-01  2.4388694387275631e-01  2.4424440757312396e-01  2.4556765900517860e-01  2.4781452878069332e-01  2.5089073113869398e-01  2.5465662190629806e-01  2.5893621045380388e-01  2.6352729279930431e-01  2.6821151889990635e-01  2.7276333454584123e-01  2.7695698305960864e-01  2.8057103019168722e-01  2.8339010906716794e-01  2.8520371686823032e-01  2.8580190819216100e-01  2.8496762657777891e-01  2.8246522145955660e-01  2.7802445848397161e-01  2.7131912954069359e-01  2.6193938386348420e-01  2.4935758530085977e-01  2.3289018094031100e-01  2.1166451580083603e-01  1.8461488984110180e-01  1.5065083699669288e-01  1.0870263570658406e-01  6.0342915914632415e-02  4.3897697890921674e-03  2.2666331629223710e-03  3.7081948795100565e-02  6.8399566891924987e-02  9.6870736634906043e-02  1.2065702415075046e-01  1.3982665876237446e-01  1.5474322960416445e-01  1.6595054510214843e-01  1.7398534950784794e-01  1.7932406735609993e-01  1.8237443359277919e-01  1.8348635298216223e-01  1.8296862122411439e-01  1.8110523556172631e-01  1.7816872857060204e-01  1.7442954844283010e-01  1.7016118045775452e-01  1.6564099885215075e-01  1.6114702827404037e-01  1.5695101154536034e-01  1.5330847229087427e-01  1.5044681119194309e-01  1.4855281669031048e-01  1.4776120484974101e-01  1.4814582441857918e-01  1.4971490201452362e-01  1.5241115918268558e-01  1.5611689440058130e-01  1.6066334499546869e-01  1.6584300476100625e-01  1.7142321353626996e-01  1.7715931172671526e-01  1.8280592512640476e-01  1.8812539929784725e-01  1.9289289656151232e-01  1.9689808008309787e-01  1.9994356590565424e-01  2.0184040981394219e-01  2.0240084528087116e-01  2.0142837104084399e-01  1.9870520435765113e-01  1.9397722480364238e-01  1.8693710475009578e-01  1.7720788254543282e-01  1.6433296189490115e-01  1.4778565962934068e-01  1.2702375672177638e-01  1.0167827871581174e-01  7.1670378054355444e-02  3.8816789047259596e-02  2.4896510461938238e-03  9.5857421110131038e-04  2.1824461824623869e-02  4.1381897405887200e-02  6.0058575230334574e-02  7.6150558720636932e-02  8.9311453463433388e-02  9.9491840902503459e-02  1.0687906408902120e-01  1.1174170427850670e-01  1.1436368542780376e-01  1.1501747924640091e-01  1.1395906394054203e-01  1.1143312883185451e-01  1.0768180405917085e-01  1.0295331492365351e-01  9.7508579136261750e-02  9.1624578726943323e-02  8.5593771204033303e-02  7.9719128278541967e-02  7.4304768278210212e-02  6.9642654886699892e-02  6.5996459022702070e-02  6.3584326411048137e-02  6.2562796158335071e-02  6.3014287416809964e-02  6.4940270711464743e-02  6.8261445735450316e-02  7.2825094814343919e-02  7.8418541921813731e-02  8.4786639591013624e-02  9.1650680526947734e-02  9.8726179808061684e-02  1.0573751114799575e-01  1.1242819342721218e-01  1.1856646286985553e-01  1.2394643387604136e-01  1.2838554822806150e-01  1.3171914045387118e-01  1.3379288437563622e-01  1.3445375375011326e-01  1.3354007580800245e-01  1.3087146224698715e-01  1.2624012141931612e-01  1.1940667722179060e-01  1.1010680600230154e-01  9.8079872670640555e-02  8.3136659100350271e-02  6.5316881050613548e-02  4.4950771085298477e-02  2.3716352232351762e-02  1.1974445471299975e-03  -1.6409388816022173e-05  1.0703691755832202e-02  2.1383372560053963e-02  3.2275931577875221e-02  4.1912958048666418e-02  4.9780117470581503e-02  5.5613162237661093e-02  5.9375283252848243e-02  6.1144004275207262e-02  6.1052358169925221e-02  5.9258532367518345e-02  5.5934373695983766e-02  5.1264733361129834e-02  4.5452021818879459e-02  3.8722359283196076e-02  3.1330895686875672e-02  2.3564515429471689e-02  1.5740510018642795e-02  8.2001354474886493e-03  1.2964563406193284e-03  -4.6233762167071941e-03  -9.2402632095420073e-03  -1.2287441204406641e-02  -1.3573673375522125e-02  -1.3001643667823946e-02  -1.0578170463982690e-02  -6.4140503351916515e-03  -7.1319908483825163e-04  6.2472023483701473e-03  1.4142207035952290e-02  2.2626105987235353e-02  3.1357009235696960e-02  4.0016104737217603e-02  4.8320129483969007e-02  5.6026980153903089e-02  6.2935419978945945e-02  6.8880376513231131e-02  7.3725420505199965e-02  7.7353826983123347e-02  7.9659342523902665e-02  8.0537610164395590e-02  7.9879316912052897e-02  7.7566713949480934e-02  7.3476419394250522e-02  6.7493569363078071e-02  5.9544915651276648e-02  4.9660177270121071e-02  3.8087736526535847e-02  2.5318229132170769e-02  1.2788400173971776e-02  2.4170679145131183e-04  -7.6010712230571763e-04  2.4336942520145704e-03  6.3753484234083330e-03  1.1148596037933315e-02  1.5504528483433339e-02  1.8867626217699950e-02  2.0866044074863480e-02  2.1326159177662760e-02  2.0193937389269872e-02  1.7488237092994893e-02  1.3273771830076334e-02  7.6490164381573062e-03  7.4400657800377046e-04  -7.2761740765255609e-03  -1.6205400487774999e-02  -2.5790562593171560e-02  -3.5727939701543553e-02  -4.5664034064877096e-02  -5.5202805424859273e-02  -6.3920739955997646e-02  -7.1390188280663222e-02  -7.7209875992451313e-02  -8.1039610001536172e-02  -8.2634420228583624e-02  -8.1872316455580393e-02  -7.8770093826624824e-02  -7.3483437641459884e-02  -6.6290644174029190e-02  -5.7562729804681211e-02  -4.7725457543784558e-02  -3.7220021861578093e-02  -2.6468557214244844e-02  -1.5848684333060258e-02  -5.6787860482725343e-03  3.7865785236184304e-03  1.2353237075651547e-02  1.9878692048536570e-02  2.6260788587079708e-02  3.1425913901525757e-02  3.5318283508666830e-02  3.7891433592648363e-02  3.9102933780248469e-02  3.8913669398012128e-02  3.7293868803582028e-02  3.4239335514660046e-02  2.9802422023506435e-02  2.4142130333253551e-02  1.7606036424600426e-02  1.0736212444995012e-02  4.7425171649877326e-03  -4.7985060686961861e-04  -1.3388648067600730e-03  -3.7801656430347650e-03  -4.9625253932573691e-03  -4.9678434794978663e-03  -4.8657049942399536e-03  -5.2501712004032770e-03  -6.5466865717062218e-03  -9.0134330593952452e-03  -1.2795795027628083e-02  -1.7961910010513744e-02  -2.4524265290745268e-02  -3.2449441319924735e-02  -4.1659036553182184e-02  -5.2024739948024958e-02  -6.3360194073072598e-02  -7.5412203628505287e-02  -8.7854016827720885e-02  -1.0028369473004418e-01  -1.1223071551339220e-01  -1.2317358630964699e-01  -1.3257001226878740e-01  -1.3989892267882270e-01  -1.4471056171316377e-01  -1.4667760733958010e-01  -1.4563802068917536e-01  -1.4162025251731344e-01  -1.3484419830350119e-01  -1.2569646699856554e-01  -1.1468454028582244e-01  -1.0237915685460620e-01  -8.9356139249323896e-02  -7.6147505362965398e-02  -6.3207988337923890e-02  -5.0898635973909104e-02  -3.9485454195799671e-02  -2.9148904301299471e-02  -1.9999508914857848e-02  -1.2095413623298940e-02  -5.4588797425773597e-03  -8.9830042104058452e-05  4.0245934712528656e-03  6.9051197783074865e-03  8.5808450851157497e-03  9.0964056295789238e-03  8.5278624707593401e-03  7.0097562844458443e-03  4.7751202988074578e-03  2.2140133236750901e-03  -1.2519736573933448e-04  -1.2211937180271202e-03  -1.0341832457481312e-03  -1.7963896042480980e-03  -8.4565130814685703e-03  -1.3520855663633953e-02  -1.7228976711084330e-02  -2.0509842202612767e-02  -2.3960605003266480e-02  -2.8034662228560769e-02  -3.3045516088913963e-02  -3.9205276256080189e-02  -4.6651639215919923e-02  -5.5464149638238376e-02  -6.5670472874152092e-02  -7.7244410027203808e-02  -9.0097621694564478e-02  -1.0406714765514115e-01  -1.1890119705192169e-01  -1.3424640561217055e-01  -1.4964067612756438e-01  -1.6451649098623505e-01  -1.7821966265363093e-01  -1.9004721077167105e-01  -1.9930490475430215e-01  -2.0538001768416800e-01  -2.0781898375916594e-01  -2.0639495029069405e-01  -2.0114911780010619e-01  -1.9239390357900690e-01  -1.8067486895118348e-01  -1.6669910077345571e-01  -1.5124618633534129e-01  -1.3508086530721106e-01  -1.1888329849754206e-01  -1.0320573166915450e-01  -8.8456427224295281e-02  -7.4905794364890241e-02  -6.2706827085802358e-02  -5.1921945074420758e-02  -4.2550032568486156e-02  -3.4549727506545197e-02  -2.7857013509101830e-02  -2.2396520638705061e-02  -1.8086578667389198e-02  -1.4838095947754419e-02  -1.2546942226357228e-02  -1.1078938596319142e-02  -1.0246288601514799e-02  -9.7749375562060595e-03  -9.2612098384221506e-03  -8.1686796691371813e-03  -5.6278925144672603e-03  -1.4657296161876719e-03  -2.1626735412467982e-03  -1.1947081953931188e-02  -1.9917054901558047e-02  -2.6458307631895238e-02  -3.2390742639375074e-02  -3.8309857962283742e-02  -4.4685563639177486e-02  -5.1871279747661848e-02  -6.0132209947734210e-02  -6.9666293716744571e-02  -8.0616104133995614e-02  -9.3071575946723273e-02  -1.0706434502123162e-01  -1.2255475518880045e-01  -1.3941295841185697e-01  -1.5739632855580446e-01  -1.7612677189573284e-01  -1.9507335925823580e-01  -2.1354761662671554e-01  -2.3071996569830944e-01  -2.4566498811231943e-01  -2.5743913377119693e-01  -2.6518665268835911e-01  -2.6825905888845142e-01  -2.6632378575253740e-01  -2.5943384352219634e-01  -2.4803623591102952e-01  -2.3291251484754846e-01  -2.1506464574454501e-01  -1.9557482520794317e-01  -1.7547248179985314e-01  -1.5563459676998559e-01  -1.3673148793882078e-01  -1.1921609276006807e-01  -1.0334547883564935e-01  -8.9220180016532313e-02  -7.6828592463324130e-02  -6.6087614778471762e-02  -5.6874884876625731e-02  -4.9051176465802190e-02  -4.2473425935279530e-02  -3.6999618936330143e-02  -3.2486714187985113e-02  -2.8782268944953039e-02  -2.5709781257657997e-02  -2.3047378558940113e-02  -2.0499962815857295e-02  -1.7665374251399798e-02  -1.4026876169651422e-02  -8.8374673010200040e-03  -1.8053588302491908e-03  -2.4590273880117329e-03  -1.4497196654826412e-02  -2.4588335101201203e-02  -3.3249997274550240e-02  -4.1217210389324445e-02  -4.9082664684386337e-02  -5.7327997670608713e-02  -6.6338927296516970e-02  -7.6427221449071589e-02  -8.7847782230008956e-02  -1.0080747876495322e-01  -1.1546492351037699e-01  -1.3192109590997425e-01  -1.5020085092815602e-01  -1.7022577724379384e-01  -1.9177995580772708e-01  -2.1447222477022987e-01  -2.3770166468213513e-01  -2.6063682074772837e-01  -2.8222256295240111e-01  -3.0122937579603737e-01  -3.1635552974745179e-01  -3.2638086373458497e-01  -3.3035245655838202e-01  -3.2776282763657583e-01  -3.1867049870430564e-01  -3.0372043275444888e-01  -2.8404976772536955e-01  -2.6110188457122990e-01  -2.3640114354049493e-01  -2.1134762476526733e-01  -1.8707514368789965e-01  -1.6438801003245440e-01  -1.4376678506239426e-01  -1.2541937062030128e-01  -1.0935183930669427e-01  -9.5439159801439633e-02  -8.3484199492449687e-02  -7.3260565874646244e-02  -6.4539559561763354e-02  -5.7103796832055034e-02  -5.0750591141892010e-02  -4.5287703728539588e-02  -4.0523159472468054e-02  -3.6249883698222032e-02  -3.2225274383954818e-02  -2.8146112117665049e-02  -2.3620572658095862e-02  -1.8155816068468684e-02  -1.1105227621658345e-02  -2.0754157030267806e-03  -2.7008931387211810e-03  -1.6281806221572017e-02  -2.7849926162594383e-02  -3.8037791045081613e-02  -4.7513430992204307e-02  -5.6866101880564630e-02  -6.6587048287152437e-02  -7.7090617856691621e-02  -8.8732721451874122e-02  -1.0182591056653012e-01  -1.1664665903668596e-01  -1.3343336366099912e-01  -1.5237400304341137e-01  -1.7358219442386222e-01  -1.9706060919290755e-01  -2.2265183003946726e-01  -2.4997936910172633e-01  -2.7838621446532058e-01  -3.0688494608272660e-01  -3.3414099963356714e-01  -3.5851591454633197e-01  -3.7819503430771412e-01  -3.9140818966185270e-01  -3.9672027576804142e-01  -3.9332903051590118e-01  -3.8127943820539612e-01  -3.6151131055647917e-01  -3.3570720837534573e-01  -3.0598193550332708e-01  -2.7451242846837082e-01  -2.4321692169777231e-01  -2.1355535956563571e-01  -1.8646681104003643e-01  -1.6241484890325808e-01  -1.4149301162942587e-01  -1.2354626301794260e-01  -1.0827930694026865e-01  -9.5338436574769175e-02  -8.4365031541518920e-02  -7.5024912847665534e-02  -6.7019757816954434e-02  -6.0086373512009718e-02  -5.3988185980081309e-02  -4.8501654580776772e-02  -4.3398909770441287e-02  -3.8426956261350030e-02  -3.3283904342909752e-02  -2.7594497074498736e-02  -2.0893263941629773e-02  -1.2617983089632067e-02  -2.2925287863885093e-03  -2.8995563629353933e-03  -1.7428308057455578e-02  -2.9933301425790447e-02  -4.1142696624055120e-02  -5.1670199178606636e-02  -6.2100171273044923e-02  -7.2931830889749735e-02  -8.4605950881484954e-02  -9.7521941736036455e-02  -1.1205265015428845e-01  -1.2855186713357408e-01  -1.4735238755029365e-01  -1.6875247274683497e-01  -1.9298779224625612e-01  -2.2018553648433653e-01  -2.5029803335230427e-01  -2.8301592274259485e-01  -3.1766701920919738e-01  -3.5311746503346531e-01  -3.8770625468675946e-01  -4.1925886521322375e-01  -4.4523132054936893e-01  -4.6301866667494462e-01  -4.7041044501328372e-01  -4.6609704642207966e-01  -4.5006175492447514e-01  -4.2368972267427141e-01  -3.8951790502393602e-01  -3.5070158167914811e-01  -3.1039118844817654e-01  -2.7122526765906152e-01  -2.3505864062668125e-01  -2.0292928753705200e-01  -1.7518951085929022e-01  -1.5170752241532792e-01  -1.3206678315331855e-01  -1.1572433501888124e-01  -1.0211745323845077e-01  -9.0724250098895662e-02  -8.1090055434739253e-02  -7.2831487693114608e-02  -6.5627559172075231e-02  -5.9204028684973591e-02  -5.3314494094298316e-02  -4.7719730179659657e-02  -4.2165530219019885e-02  -3.6359329686501747e-02  -2.9947835504432398e-02  -2.2496671184749878e-02  -1.3516697549657669e-02  -2.4692993497579321e-03  -3.0632501119476100e-03  -1.8031802183265614e-02  -3.1012446820304653e-02  -4.2807127431422815e-02  -5.3983568793705687e-02  -6.5118312089565381e-02  -7.6716121287739150e-02  -8.9241716256958592e-02  -1.0313720003843414e-01  -1.1883827163320829e-01  -1.3678404634617525e-01  -1.5741776301913946e-01  -1.8117512093058091e-01  -2.0845536311820367e-01  -2.3956868701656106e-01  -2.7465283610106828e-01  -3.1355334720356021e-01  -3.5566833448822388e-01  -3.9977300178638581e-01  -4.4386357021824596e-01  -4.8509260326687126e-01  -5.1989467099070785e-01  -5.4439473672315264e-01  -5.5511672470854012e-01  -5.4985760948650986e-01  -5.2842512103197858e-01  -4.9288744711405985e-01  -4.4715341071123482e-01  -3.9602534065502437e-01  -3.4412103268260635e-01  -2.9506649977492549e-01  -2.5115151296547455e-01  -2.1339890714169152e-01  -1.8187012174078837e-01  -1.5602957904478681e-01  -1.3505648741570633e-01  -1.1806232544061142e-01  -1.0421720094850842e-01  -9.2807302550030182e-02  -8.3248107052361617e-02  -7.5073102446529427e-02  -6.7911255845620272e-02  -6.1460854524886983e-02  -5.5463355584541317e-02  -4.9678378436386408e-02  -4.3859589195906802e-02  -3.7731276544953271e-02  -3.0967351581411492e-02  -2.3168666137494954e-02  -1.3911312636989286e-02  -2.6153596073147274e-03  -3.1979040463154928e-03  -1.8165784452462096e-02  -3.1222700397492732e-02  -4.3220245080049631e-02  -5.4684848527377435e-02  -6.6180537546880691e-02  -7.8213593126603226e-02  -9.1268629727153508e-02  -1.0582775643945440e-01  -1.2238983604546481e-01  -1.4148494447730836e-01  -1.6368104304309453e-01  -1.8957873573472436e-01  -2.1978729075561237e-01  -2.5487181753519617e-01  -2.9525815284550988e-01  -3.4108039198692125e-01  -3.9195979106587286e-01  -4.4671931740716098e-01  -5.0307369091349319e-01  -5.5739530006372795e-01  -6.0473031363853735e-01  -6.3927901258398578e-01  -6.5547171251444403e-01  -6.4949349073913432e-01  -6.2071349178089719e-01  -5.7226483518101878e-01  -5.1032403642446811e-01  -4.4236394792235073e-01  -3.7523257054563613e-01  -3.1386844573304623e-01  -2.6093910206725518e-01  -2.1718340091967109e-01  -1.8205382073620779e-01  -1.5434094486595634e-01  -1.3263160726657194e-01  -1.1558081493038391e-01  -1.0203797191961342e-01  -9.1080227629324537e-02  -8.1996172683011542e-02  -7.4248423897679883e-02  -6.7431177259359529e-02  -6.1230317600190091e-02  -5.5388626648093207e-02  -4.9675983719088351e-02  -4.3863263255915289e-02  -3.7698930165895386e-02  -