<?xml version="1.0"?>
<VTKFile type="UnstructuredGrid"  version="0.1"  >
<UnstructuredGrid>
<Piece  NumberOfPoints="5101" NumberOfCells="10000">
<Points>
<DataArray  type="Float64"  NumberOfComponents="3"  format="ascii">0 0 0  0.2 0 0  0.4 0 0  0.6 0 0  0.8 0 0  1 0 0  1.2 0 0  1.4 0 0  1.6 0 0  1.8 0 0  2 0 0  2.2 0 0  2.4 0 0  2.6 0 0  2.8 0 0  3 0 0  3.2 0 0  3.4 0 0  3.6 0 0  3.8 0 0  4 0 0  4.2 0 0  4.4 0 0  4.6 0 0  4.8 0 0  5 0 0  5.2 0 0  5.4 0 0  5.6 0 0  5.8 0 0  6 0 0  6.2 0 0  6.4 0 0  6.6 0 0  6.8 0 0  7 0 0  7.2 0 0  7.4 0 0  7.6 0 0  7.8 0 0  8 0 0  8.199999999999999 0 0  8.4 0 0  8.6 0 0  8.800000000000001 0 0  9 0 0  9.199999999999999 0 0  9.4 0 0  9.6 0 0  9.800000000000001 0 0  10 0 0  0 0.2 0  0.2 0.2 0  0.4 0.2 0  0.6 0.2 0  0.8 0.2 0  1 0.2 0  1.2 0.2 0  1.4 0.2 0  1.6 0.2 0  1.8 0.2 0  2 0.2 0  2.2 0.2 0  2.4 0.2 0  2.6 0.2 0  2.8 0.2 0  3 0.2 0  3.2 0.2 0  3.4 0.2 0  3.6 0.2 0  3.8 0.2 0  4 0.2 0  4.2 0.2 0  4.4 0.2 0  4.6 0.2 0  4.8 0.2 0  5 0.2 0  5.2 0.2 0  5.4 0.2 0  5.6 0.2 0  5.8 0.2 0  6 0.2 0  6.2 0.2 0  6.4 0.2 0  6.6 0.2 0  6.8 0.2 0  7 0.2 0  7.2 0.2 0  7.4 0.2 0  7.6 0.2 0  7.8 0.2 0  8 0.2 0  8.199999999999999 0.2 0  8.4 0.2 0  8.6 0.2 0  8.800000000000001 0.2 0  9 0.2 0  9.199999999999999 0.2 0  9.4 0.2 0  9.6 0.2 0  9.800000000000001 0.2 0  10 0.2 0  0 0.4 0  0.2 0.4 0  0.4 0.4 0  0.6 0.4 0  0.8 0.4 0  1 0.4 0  1.2 0.4 0  1.4 0.4 0  1.6 0.4 0  1.8 0.4 0  2 0.4 0  2.2 0.4 0  2.4 0.4 0  2.6 0.4 0  2.8 0.4 0  3 0.4 0  3.2 0.4 0  3.4 0.4 0  3.6 0.4 0  3.8 0.4 0  4 0.4 0  4.2 0.4 0  4.4 0.4 0  4.6 0.4 0  4.8 0.4 0  5 0.4 0  5.2 0.4 0  5.4 0.4 0  5.6 0.4 0  5.8 0.4 0  6 0.4 0  6.2 0.4 0  6.4 0.4 0  6.6 0.4 0  6.8 0.4 0  7 0.4 0  7.2 0.4 0  7.4 0.4 0  7.6 0.4 0  7.8 0.4 0  8 0.4 0  8.199999999999999 0.4 0  8.4 0.4 0  8.6 0.4 0  8.800000000000001 0.4 0  9 0.4 0  9.199999999999999 0.4 0  9.4 0.4 0  9.6 0.4 0  9.800000000000001 0.4 0  10 0.4 0  0 0.6 0  0.2 0.6 0  0.4 0.6 0  0.6 0.6 0  0.8 0.6 0  1 0.6 0  1.2 0.6 0  1.4 0.6 0  1.6 0.6 0  1.8 0.6 0  2 0.6 0  2.2 0.6 0  2.4 0.6 0  2.6 0.6 0  2.8 0.6 0  3 0.6 0  3.2 0.6 0  3.4 0.6 0  3.6 0.6 0  3.8 0.6 0  4 0.6 0  4.2 0.6 0  4.4 0.6 0  4.6 0.6 0  4.8 0.6 0  5 0.6 0  5.2 0.6 0  5.4 0.6 0  5.6 0.6 0  5.8 0.6 0  6 0.6 0  6.2 0.6 0  6.4 0.6 0  6.6 0.6 0  6.8 0.6 0  7 0.6 0  7.2 0.6 0  7.4 0.6 0  7.6 0.6 0  7.8 0.6 0  8 0.6 0  8.199999999999999 0.6 0  8.4 0.6 0  8.6 0.6 0  8.800000000000001 0.6 0  9 0.6 0  9.199999999999999 0.6 0  9.4 0.6 0  9.6 0.6 0  9.800000000000001 0.6 0  10 0.6 0  0 0.8 0  0.2 0.8 0  0.4 0.8 0  0.6 0.8 0  0.8 0.8 0  1 0.8 0  1.2 0.8 0  1.4 0.8 0  1.6 0.8 0  1.8 0.8 0  2 0.8 0  2.2 0.8 0  2.4 0.8 0  2.6 0.8 0  2.8 0.8 0  3 0.8 0  3.2 0.8 0  3.4 0.8 0  3.6 0.8 0  3.8 0.8 0  4 0.8 0  4.2 0.8 0  4.4 0.8 0  4.6 0.8 0  4.8 0.8 0  5 0.8 0  5.2 0.8 0  5.4 0.8 0  5.6 0.8 0  5.8 0.8 0  6 0.8 0  6.2 0.8 0  6.4 0.8 0  6.6 0.8 0  6.8 0.8 0  7 0.8 0  7.2 0.8 0  7.4 0.8 0  7.6 0.8 0  7.8 0.8 0  8 0.8 0  8.199999999999999 0.8 0  8.4 0.8 0  8.6 0.8 0  8.800000000000001 0.8 0  9 0.8 0  9.199999999999999 0.8 0  9.4 0.8 0  9.6 0.8 0  9.800000000000001 0.8 0  10 0.8 0  0 1 0  0.2 1 0  0.4 1 0  0.6 1 0  0.8 1 0  1 1 0  1.2 1 0  1.4 1 0  1.6 1 0  1.8 1 0  2 1 0  2.2 1 0  2.4 1 0  2.6 1 0  2.8 1 0  3 1 0  3.2 1 0  3.4 1 0  3.6 1 0  3.8 1 0  4 1 0  4.2 1 0  4.4 1 0  4.6 1 0  4.8 1 0  5 1 0  5.2 1 0  5.4 1 0  5.6 1 0  5.8 1 0  6 1 0  6.2 1 0  6.4 1 0  6.6 1 0  6.8 1 0  7 1 0  7.2 1 0  7.4 1 0  7.6 1 0  7.8 1 0  8 1 0  8.199999999999999 1 0  8.4 1 0  8.6 1 0  8.800000000000001 1 0  9 1 0  9.199999999999999 1 0  9.4 1 0  9.6 1 0  9.800000000000001 1 0  10 1 0  0 1.2 0  0.2 1.2 0  0.4 1.2 0  0.6 1.2 0  0.8 1.2 0  1 1.2 0  1.2 1.2 0  1.4 1.2 0  1.6 1.2 0  1.8 1.2 0  2 1.2 0  2.2 1.2 0  2.4 1.2 0  2.6 1.2 0  2.8 1.2 0  3 1.2 0  3.2 1.2 0  3.4 1.2 0  3.6 1.2 0  3.8 1.2 0  4 1.2 0  4.2 1.2 0  4.4 1.2 0  4.6 1.2 0  4.8 1.2 0  5 1.2 0  5.2 1.2 0  5.4 1.2 0  5.6 1.2 0  5.8 1.2 0  6 1.2 0  6.2 1.2 0  6.4 1.2 0  6.6 1.2 0  6.8 1.2 0  7 1.2 0  7.2 1.2 0  7.4 1.2 0  7.6 1.2 0  7.8 1.2 0  8 1.2 0  8.199999999999999 1.2 0  8.4 1.2 0  8.6 1.2 0  8.800000000000001 1.2 0  9 1.2 0  9.199999999999999 1.2 0  9.4 1.2 0  9.6 1.2 0  9.800000000000001 1.2 0  10 1.2 0  0 1.4 0  0.2 1.4 0  0.4 1.4 0  0.6 1.4 0  0.8 1.4 0  1 1.4 0  1.2 1.4 0  1.4 1.4 0  1.6 1.4 0  1.8 1.4 0  2 1.4 0  2.2 1.4 0  2.4 1.4 0  2.6 1.4 0  2.8 1.4 0  3 1.4 0  3.2 1.4 0  3.4 1.4 0  3.6 1.4 0  3.8 1.4 0  4 1.4 0  4.2 1.4 0  4.4 1.4 0  4.6 1.4 0  4.8 1.4 0  5 1.4 0  5.2 1.4 0  5.4 1.4 0  5.6 1.4 0  5.8 1.4 0  6 1.4 0  6.2 1.4 0  6.4 1.4 0  6.6 1.4 0  6.8 1.4 0  7 1.4 0  7.2 1.4 0  7.4 1.4 0  7.6 1.4 0  7.8 1.4 0  8 1.4 0  8.199999999999999 1.4 0  8.4 1.4 0  8.6 1.4 0  8.800000000000001 1.4 0  9 1.4 0  9.199999999999999 1.4 0  9.4 1.4 0  9.6 1.4 0  9.800000000000001 1.4 0  10 1.4 0  0 1.6 0  0.2 1.6 0  0.4 1.6 0  0.6 1.6 0  0.8 1.6 0  1 1.6 0  1.2 1.6 0  1.4 1.6 0  1.6 1.6 0  1.8 1.6 0  2 1.6 0  2.2 1.6 0  2.4 1.6 0  2.6 1.6 0  2.8 1.6 0  3 1.6 0  3.2 1.6 0  3.4 1.6 0  3.6 1.6 0  3.8 1.6 0  4 1.6 0  4.2 1.6 0  4.4 1.6 0  4.6 1.6 0  4.8 1.6 0  5 1.6 0  5.2 1.6 0  5.4 1.6 0  5.6 1.6 0  5.8 1.6 0  6 1.6 0  6.2 1.6 0  6.4 1.6 0  6.6 1.6 0  6.8 1.6 0  7 1.6 0  7.2 1.6 0  7.4 1.6 0  7.6 1.6 0  7.8 1.6 0  8 1.6 0  8.199999999999999 1.6 0  8.4 1.6 0  8.6 1.6 0  8.800000000000001 1.6 0  9 1.6 0  9.199999999999999 1.6 0  9.4 1.6 0  9.6 1.6 0  9.800000000000001 1.6 0  10 1.6 0  0 1.8 0  0.2 1.8 0  0.4 1.8 0  0.6 1.8 0  0.8 1.8 0  1 1.8 0  1.2 1.8 0  1.4 1.8 0  1.6 1.8 0  1.8 1.8 0  2 1.8 0  2.2 1.8 0  2.4 1.8 0  2.6 1.8 0  2.8 1.8 0  3 1.8 0  3.2 1.8 0  3.4 1.8 0  3.6 1.8 0  3.8 1.8 0  4 1.8 0  4.2 1.8 0  4.4 1.8 0  4.6 1.8 0  4.8 1.8 0  5 1.8 0  5.2 1.8 0  5.4 1.8 0  5.6 1.8 0  5.8 1.8 0  6 1.8 0  6.2 1.8 0  6.4 1.8 0  6.6 1.8 0  6.8 1.8 0  7 1.8 0  7.2 1.8 0  7.4 1.8 0  7.6 1.8 0  7.8 1.8 0  8 1.8 0  8.199999999999999 1.8 0  8.4 1.8 0  8.6 1.8 0  8.800000000000001 1.8 0  9 1.8 0  9.199999999999999 1.8 0  9.4 1.8 0  9.6 1.8 0  9.800000000000001 1.8 0  10 1.8 0  0 2 0  0.2 2 0  0.4 2 0  0.6 2 0  0.8 2 0  1 2 0  1.2 2 0  1.4 2 0  1.6 2 0  1.8 2 0  2 2 0  2.2 2 0  2.4 2 0  2.6 2 0  2.8 2 0  3 2 0  3.2 2 0  3.4 2 0  3.6 2 0  3.8 2 0  4 2 0  4.2 2 0  4.4 2 0  4.6 2 0  4.8 2 0  5 2 0  5.2 2 0  5.4 2 0  5.6 2 0  5.8 2 0  6 2 0  6.2 2 0  6.4 2 0  6.6 2 0  6.8 2 0  7 2 0  7.2 2 0  7.4 2 0  7.6 2 0  7.8 2 0  8 2 0  8.199999999999999 2 0  8.4 2 0  8.6 2 0  8.800000000000001 2 0  9 2 0  9.199999999999999 2 0  9.4 2 0  9.6 2 0  9.800000000000001 2 0  10 2 0  0 2.2 0  0.2 2.2 0  0.4 2.2 0  0.6 2.2 0  0.8 2.2 0  1 2.2 0  1.2 2.2 0  1.4 2.2 0  1.6 2.2 0  1.8 2.2 0  2 2.2 0  2.2 2.2 0  2.4 2.2 0  2.6 2.2 0  2.8 2.2 0  3 2.2 0  3.2 2.2 0  3.4 2.2 0  3.6 2.2 0  3.8 2.2 0  4 2.2 0  4.2 2.2 0  4.4 2.2 0  4.6 2.2 0  4.8 2.2 0  5 2.2 0  5.2 2.2 0  5.4 2.2 0  5.6 2.2 0  5.8 2.2 0  6 2.2 0  6.2 2.2 0  6.4 2.2 0  6.6 2.2 0  6.8 2.2 0  7 2.2 0  7.2 2.2 0  7.4 2.2 0  7.6 2.2 0  7.8 2.2 0  8 2.2 0  8.199999999999999 2.2 0  8.4 2.2 0  8.6 2.2 0  8.800000000000001 2.2 0  9 2.2 0  9.199999999999999 2.2 0  9.4 2.2 0  9.6 2.2 0  9.800000000000001 2.2 0  10 2.2 0  0 2.4 0  0.2 2.4 0  0.4 2.4 0  0.6 2.4 0  0.8 2.4 0  1 2.4 0  1.2 2.4 0  1.4 2.4 0  1.6 2.4 0  1.8 2.4 0  2 2.4 0  2.2 2.4 0  2.4 2.4 0  2.6 2.4 0  2.8 2.4 0  3 2.4 0  3.2 2.4 0  3.4 2.4 0  3.6 2.4 0  3.8 2.4 0  4 2.4 0  4.2 2.4 0  4.4 2.4 0  4.6 2.4 0  4.8 2.4 0  5 2.4 0  5.2 2.4 0  5.4 2.4 0  5.6 2.4 0  5.8 2.4 0  6 2.4 0  6.2 2.4 0  6.4 2.4 0  6.6 2.4 0  6.8 2.4 0  7 2.4 0  7.2 2.4 0  7.4 2.4 0  7.6 2.4 0  7.8 2.4 0  8 2.4 0  8.199999999999999 2.4 0  8.4 2.4 0  8.6 2.4 0  8.800000000000001 2.4 0  9 2.4 0  9.199999999999999 2.4 0  9.4 2.4 0  9.6 2.4 0  9.800000000000001 2.4 0  10 2.4 0  0 2.6 0  0.2 2.6 0  0.4 2.6 0  0.6 2.6 0  0.8 2.6 0  1 2.6 0  1.2 2.6 0  1.4 2.6 0  1.6 2.6 0  1.8 2.6 0  2 2.6 0  2.2 2.6 0  2.4 2.6 0  2.6 2.6 0  2.8 2.6 0  3 2.6 0  3.2 2.6 0  3.4 2.6 0  3.6 2.6 0  3.8 2.6 0  4 2.6 0  4.2 2.6 0  4.4 2.6 0  4.6 2.6 0  4.8 2.6 0  5 2.6 0  5.2 2.6 0  5.4 2.6 0  5.6 2.6 0  5.8 2.6 0  6 2.6 0  6.2 2.6 0  6.4 2.6 0  6.6 2.6 0  6.8 2.6 0  7 2.6 0  7.2 2.6 0  7.4 2.6 0  7.6 2.6 0  7.8 2.6 0  8 2.6 0  8.199999999999999 2.6 0  8.4 2.6 0  8.6 2.6 0  8.800000000000001 2.6 0  9 2.6 0  9.199999999999999 2.6 0  9.4 2.6 0  9.6 2.6 0  9.800000000000001 2.6 0  10 2.6 0  0 2.8 0  0.2 2.8 0  0.4 2.8 0  0.6 2.8 0  0.8 2.8 0  1 2.8 0  1.2 2.8 0  1.4 2.8 0  1.6 2.8 0  1.8 2.8 0  2 2.8 0  2.2 2.8 0  2.4 2.8 0  2.6 2.8 0  2.8 2.8 0  3 2.8 0  3.2 2.8 0  3.4 2.8 0  3.6 2.8 0  3.8 2.8 0  4 2.8 0  4.2 2.8 0  4.4 2.8 0  4.6 2.8 0  4.8 2.8 0  5 2.8 0  5.2 2.8 0  5.4 2.8 0  5.6 2.8 0  5.8 2.8 0  6 2.8 0  6.2 2.8 0  6.4 2.8 0  6.6 2.8 0  6.8 2.8 0  7 2.8 0  7.2 2.8 0  7.4 2.8 0  7.6 2.8 0  7.8 2.8 0  8 2.8 0  8.199999999999999 2.8 0  8.4 2.8 0  8.6 2.8 0  8.800000000000001 2.8 0  9 2.8 0  9.199999999999999 2.8 0  9.4 2.8 0  9.6 2.8 0  9.800000000000001 2.8 0  10 2.8 0  0 3 0  0.2 3 0  0.4 3 0  0.6 3 0  0.8 3 0  1 3 0  1.2 3 0  1.4 3 0  1.6 3 0  1.8 3 0  2 3 0  2.2 3 0  2.4 3 0  2.6 3 0  2.8 3 0  3 3 0  3.2 3 0  3.4 3 0  3.6 3 0  3.8 3 0  4 3 0  4.2 3 0  4.4 3 0  4.6 3 0  4.8 3 0  5 3 0  5.2 3 0  5.4 3 0  5.6 3 0  5.8 3 0  6 3 0  6.2 3 0  6.4 3 0  6.6 3 0  6.8 3 0  7 3 0  7.2 3 0  7.4 3 0  7.6 3 0  7.8 3 0  8 3 0  8.199999999999999 3 0  8.4 3 0  8.6 3 0  8.800000000000001 3 0  9 3 0  9.199999999999999 3 0  9.4 3 0  9.6 3 0  9.800000000000001 3 0  10 3 0  0 3.2 0  0.2 3.2 0  0.4 3.2 0  0.6 3.2 0  0.8 3.2 0  1 3.2 0  1.2 3.2 0  1.4 3.2 0  1.6 3.2 0  1.8 3.2 0  2 3.2 0  2.2 3.2 0  2.4 3.2 0  2.6 3.2 0  2.8 3.2 0  3 3.2 0  3.2 3.2 0  3.4 3.2 0  3.6 3.2 0  3.8 3.2 0  4 3.2 0  4.2 3.2 0  4.4 3.2 0  4.6 3.2 0  4.8 3.2 0  5 3.2 0  5.2 3.2 0  5.4 3.2 0  5.6 3.2 0  5.8 3.2 0  6 3.2 0  6.2 3.2 0  6.4 3.2 0  6.6 3.2 0  6.8 3.2 0  7 3.2 0  7.2 3.2 0  7.4 3.2 0  7.6 3.2 0  7.8 3.2 0  8 3.2 0  8.199999999999999 3.2 0  8.4 3.2 0  8.6 3.2 0  8.800000000000001 3.2 0  9 3.2 0  9.199999999999999 3.2 0  9.4 3.2 0  9.6 3.2 0  9.800000000000001 3.2 0  10 3.2 0  0 3.4 0  0.2 3.4 0  0.4 3.4 0  0.6 3.4 0  0.8 3.4 0  1 
[...]
<PointData  Scalars="f_11"> 
<DataArray  type="Float64"  Name="f_11"  format="ascii">3.9252069584576255e+00  3.9250523033294709e+00  3.9193675970189776e+00  3.9097982243815563e+00  3.8966344523180680e+00  3.8801218783525657e+00  3.8604663444425200e+00  3.8378683186689533e+00  3.8125222991859240e+00  3.7846132272120281e+00  3.7543129687969694e+00  3.7217788864828938e+00  3.6871547164950855e+00  3.6505733764620021e+00  3.6121611151868942e+00  3.5720423676996202e+00  3.5303447125070497e+00  3.4872034019952673e+00  3.4427650311369775e+00  3.3971900153118026e+00  3.3506536622628769e+00  3.3033457448927628e+00  3.2554686083212743e+00  3.2072339706788870e+00  3.1588586930895155e+00  3.1105598883359029e+00  3.0625497979971579e+00  3.0150308857490509e+00  2.9681915671702224e+00  2.9222029280438746e+00  2.8772166845525997e+00  2.8333645248831094e+00  2.7907588582679930e+00  2.7494948972656279e+00  2.7096539195362350e+00  2.6713074973891935e+00  2.6345224419264004e+00  2.5993661748670505e+00  2.5659122055687194e+00  2.5342453465662422e+00  2.5044662475411736e+00  2.4766947740272327e+00  2.4510717264884061e+00  2.4277584336319515e+00  2.4069339486332910e+00  2.3887901443017494e+00  2.3735267816640113e+00  2.3613496443831661e+00  2.3525036836309732e+00  2.3472764766516097e+00  2.3473122510172657e+00  3.9253126251786368e+00  3.9251586203036108e+00  3.9202511874177874e+00  3.9110535769311903e+00  3.8981900614116758e+00  3.8818950307201945e+00  3.8624072461752101e+00  3.8399382041461139e+00  3.8146892513299280e+00  3.7868487810602378e+00  3.7565900382208479e+00  3.7240705818549253e+00  3.6894337130368320e+00  3.6528116630097585e+00  3.6143300186468772e+00  3.5741127897901781e+00  3.5322875400561209e+00  3.4889900631945223e+00  3.4443681707594340e+00  3.3985842549209786e+00  3.3518164003221971e+00  3.3042579403487857e+00  3.2561154836606487e+00  3.2076055700006512e+00  3.1589502393690023e+00  3.1103719017925102e+00  3.0620879621629586e+00  3.0143056755196049e+00  2.9672176789504561e+00  2.9209985715173543e+00  2.8758028054583122e+00  2.8317640274715599e+00  2.7889958860576542e+00  2.7475942143187493e+00  2.7076404156276950e+00  2.6692058230981384e+00  2.6323567671541395e+00  2.5971600589491883e+00  2.5636885704632197e+00  2.5320265573955343e+00  2.5022743277781343e+00  2.4745518173355188e+00  2.4490006160119044e+00  2.4257840498400727e+00  2.4050852194439987e+00  2.3871033836699027e+00  2.3720497935628226e+00  2.3601635318231056e+00  2.3516787141633992e+00  2.3472173458185428e+00  2.3472387825756797e+00  3.9308786335513894e+00  3.9299449885648858e+00  3.9250343540180315e+00  3.9160583348375195e+00  3.9033928786337095e+00  3.8872779630344771e+00  3.8679397302623295e+00  3.8455883980914325e+00  3.8204217574498860e+00  3.7926231698037123e+00  3.7623599125535248e+00  3.7297831918593234e+00  3.6950301184355356e+00  3.6582273632936197e+00  3.6194959891096543e+00  3.5789568845142252e+00  3.5367362349137328e+00  3.4929705081229026e+00  3.4478104997235461e+00  3.4014240674358311e+00  3.3539972873136703e+00  3.3057338892900101e+00  3.2568529740246412e+00  3.2075851693941360e+00  3.1581675386262655e+00  3.1088376833101230e+00  3.0598275727849229e+00  3.0113576607999324e+00  2.9636318143934810e+00  2.9168334842393620e+00  2.8711234070256042e+00  2.8266389726214287e+00  2.7834952367610737e+00  2.7417874336990091e+00  2.7015947536911669e+00  2.6629850978497132e+00  2.6260204997904650e+00  2.5907628962429676e+00  2.5572799233453121e+00  2.5256504011443406e+00  2.4959691425560568e+00  2.4683506920356146e+00  2.4429315858515395e+00  2.4198707734512457e+00  2.3993480327690917e+00  2.3815607609806992e+00  2.3667205175495387e+00  2.3550551981711756e+00  2.3468058628682242e+00  2.3423472777201799e+00  2.3415905141475140e+00  3.9402558395642768e+00  3.9389462559457202e+00  3.9338032619176309e+00  3.9248184702049058e+00  3.9122196642447014e+00  3.8961961384582025e+00  3.8769471357839800e+00  3.8546655837977490e+00  3.8295349676353561e+00  3.8017251503613427e+00  3.7713902419906469e+00  3.7386687896718662e+00  3.7036861365852634e+00  3.6665585391940620e+00  3.6273984981121603e+00  3.5863207194008266e+00  3.5434481280032895e+00  3.4989173820575123e+00  3.4528833806378887e+00  3.4055223223357967e+00  3.3570329667050376e+00  3.3076358825725665e+00  3.2575706376495090e+00  3.2070910832968575e+00  3.1564590953760723e+00  3.1059373163310688e+00  3.0557815719125125e+00  3.0062336815851904e+00  2.9575153328051260e+00  2.9098235536392205e+00  2.8633281215076081e+00  2.8181710253906473e+00  2.7744678931011229e+00  2.7323111340543438e+00  2.6917744464441959e+00  2.6529182948720829e+00  2.6157959664913455e+00  2.5804598399199175e+00  2.5469675303258184e+00  2.5153875898379741e+00  2.4858044369582966e+00  2.4583221649810723e+00  2.4330668531915842e+00  2.4101870075017433e+00  2.3898518507767612e+00  2.3722474014433712e+00  2.3575706703842108e+00  2.3460251109588643e+00  2.3378032176370342e+00  2.3331335266792048e+00  2.3320087843299686e+00  3.9531522464316073e+00  3.9515365232290316e+00  3.9461803148379748e+00  3.9371042971054524e+00  3.9244883182750394e+00  3.9084875566143200e+00  3.8892721739647165e+00  3.8670115513726864e+00  3.8418679779067384e+00  3.8139912612414748e+00  3.7835162462020366e+00  3.7505631137858662e+00  3.7152401006327427e+00  3.6776481312056322e+00  3.6378867855746773e+00  3.5960610038031473e+00  3.5522879209064744e+00  3.5067032249125338e+00  3.4594664395302508e+00  3.4107645672689979e+00  3.3608136082028479e+00  3.3098576112156364e+00  3.2581651253199513e+00  3.2060231878507692e+00  3.1537292826787628e+00  3.1015819764461963e+00  3.0498711388842614e+00  2.9988687281305331e+00  2.9488210515358033e+00  2.8999432078406060e+00  2.8524161203196203e+00  2.8063862440968741e+00  2.7619677368129745e+00  2.7192466666731847e+00  2.6782867162547519e+00  2.6391358184661295e+00  2.6018332073901504e+00  2.5664164471367239e+00  2.5329280832070360e+00  2.5014216185196378e+00  2.4719665374073747e+00  2.4446520856465912e+00  2.4195894755184995e+00  2.3969121471465251e+00  2.3767737258116077e+00  2.3593434082178177e+00  2.3447986998514860e+00  2.3333175147891954e+00  2.3250611438074364e+00  2.3202124965504090e+00  2.3187944855840614e+00  3.9693198158583645e+00  3.9674788530869050e+00  3.9619227578344436e+00  3.9527233446139194e+00  3.9400399201406211e+00  3.9240101099420501e+00  3.9047802407860539e+00  3.8824950240604523e+00  3.8572917424968995e+00  3.8292952727992575e+00  3.7986158983382854e+00  3.7653499732416704e+00  3.7295831326829858e+00  3.6913955753659122e+00  3.6508688680814307e+00  3.6080936806833206e+00  3.5631778169543340e+00  3.5162538553470162e+00  3.4674856656781325e+00  3.4170730505937450e+00  3.3652538093862838e+00  3.3123026701735618e+00  3.2585268033171539e+00  3.2042580050072944e+00  3.1498420799728479e+00  3.0956263782049782e+00  3.0419467583667412e+00  2.9891153778950814e+00  2.9374106050588371e+00  2.8870700281202750e+00  2.8382870736842714e+00  2.7912112455746110e+00  2.7459515616671095e+00  2.7025824725623533e+00  2.6611514195779322e+00  2.6216872122617496e+00  2.5842085296719444e+00  2.5487320170559031e+00  2.5152796087559470e+00  2.4838848238431375e+00  2.4545978369351276e+00  2.4274891243855361e+00  2.4026514420742964e+00  2.3801998360757768e+00  2.3602693736586464e+00  2.3430103760478920e+00  2.3285812446216774e+00  2.3171408388435548e+00  2.3088367073571034e+00  2.3038340563852766e+00  2.3022081575215334e+00  3.9885495265874429e+00  3.9865311771076879e+00  3.9808007990811762e+00  3.9714721629146705e+00  3.9586993172164076e+00  3.9426114479456600e+00  3.9233362747023408e+00  3.9009947932899038e+00  3.8756974553306542e+00  3.8475406703563446e+00  3.8166055561643342e+00  3.7829593174265370e+00  3.7466591646277023e+00  3.7077584510342891e+00  3.6663145809706981e+00  3.6223981496250892e+00  3.5761026676719481e+00  3.5275540922633932e+00  3.4769192464689982e+00  3.4244121034192103e+00  3.3702968977903582e+00  3.3148871675297293e+00  3.2585401660424478e+00  3.2016466191675912e+00  3.1446164695948244e+00  3.0878619286167104e+00  3.0317796794717080e+00  2.9767342994458095e+00  2.9230448097371693e+00  2.8709757481400811e+00  2.8207334166696487e+00  2.7724671689684741e+00  2.7262749491583085e+00  2.6822118916756303e+00  2.6403006711731130e+00  2.6005424066871741e+00  2.5629271843276120e+00  2.5274435692230255e+00  2.4940867511715847e+00  2.4628651620439150e+00  2.4338055010078414e+00  2.4069561161359863e+00  2.3823886465403921e+00  2.3601977720135041e+00  2.3404989124598203e+00  2.3234238537672893e+00  2.3091146744456839e+00  2.2977178676572505e+00  2.2893774270683678e+00  2.2842568550502511e+00  2.2824748662739767e+00  4.0106369361442953e+00  4.0084778539027166e+00  4.0025996403742532e+00  3.9931525414992470e+00  3.9802908562281396e+00  3.9641392767044823e+00  3.9448100164013318e+00  3.9224012769388823e+00  3.8969955526919842e+00  3.8686579421424447e+00  3.8374361607185308e+00  3.8033628716283636e+00  3.7664605014443597e+00  3.7267484409866740e+00  3.6842523594209204e+00  3.6390152018678243e+00  3.5911092468910173e+00  3.5406483530511514e+00  3.4877992432614167e+00  3.4327904207797557e+00  3.3759171744539258e+00  3.3175412230787562e+00  3.2580839614402879e+00  3.1980130313499386e+00  3.1378229702206673e+00  3.0780117879481734e+00  3.0190562087548281e+00  2.9613887151641647e+00  2.9053792910511289e+00  2.8513239174775769e+00  2.7994406562795628e+00  2.7498728937856769e+00  2.7026983209271189e+00  2.6579416821906214e+00  2.6155892580253153e+00  2.5756033453566731e+00  2.5379354973501407e+00  2.5025378099508746e+00  2.4693719804389374e+00  2.4384161545522329e+00  2.4096697181219384e+00  2.3831562062461167e+00  2.3589244473054953e+00  2.3370479918141926e+00  2.3176228702750685e+00  2.3007638627022335e+00  2.2865998302382367e+00  2.2752697180979742e+00  2.2669191765570438e+00  2.2617163820433062e+00  2.2598184163988480e+00  4.0353827442247896e+00  4.0331125339520959e+00  4.0271159732788560e+00  4.0175746438859816e+00  4.0046447163896861e+00  3.9884472098117159e+00  3.9690798839061086e+00  3.9466182872390290e+00  3.9211157801631638e+00  3.8926034822032030e+00  3.8610915223341138e+00  3.8265723464400190e+00  3.7890264896734815e+00  3.7484309773072333e+00  3.7047703242971783e+00  3.6580498894425526e+00  3.6083110472616307e+00  3.5556472416219171e+00  3.5002194974461416e+00  3.4422694680541528e+00  3.3821277285607172e+00  3.3202149807829988e+00  3.2570342993111470e+00  3.1931536203592388e+00  3.1291792723830549e+00  3.0657231578581436e+00  3.0033677256475957e+00  2.9426336113341467e+00  2.8839544586090025e+00  2.8276620219344775e+00  2.7739826078366732e+00  2.7230438499443030e+00  2.6748892807973079e+00  2.6294974540097300e+00  2.5868024669571286e+00  2.5467133949659573e+00  2.5091310507415940e+00  2.4739613498364297e+00  2.4411252248626467e+00  2.4105654304131283e+00  2.3822507412394587e+00  2.3561780355641733e+00  2.3323726553351976e+00  2.3108873267919590e+00  2.2917998830962101e+00  2.2752101219943874e+00  2.2612363916382066e+00  2.2500131178070171e+00  2.2416898720059226e+00  2.2364421190555936e+00  2.2344606597816226e+00  4.0625963747072946e+00  4.0602409625577369e+00  4.0541599912419946e+00  4.0445612097239705e+00  4.0316023357524324e+00  4.0153997981704128e+00  3.9960365387681320e+00  3.9735648028054995e+00  3.9480073412420942e+00  3.9193585524167904e+00  3.8875866649814914e+00  3.8526378070925489e+00  3.8144425997745532e+00  3.7729257382635266e+00  3.7280188530208838e+00  3.6796766994018233e+00  3.6278963387657988e+00  3.5727383916368241e+00  3.5143486655051843e+00  3.4529775748963827e+00  3.3889939857982978e+00  3.3228897504106287e+00  3.2552716170552323e+00  3.1868386676520961e+00  3.1183459187403448e+00  3.0505577496508152e+00  2.9841975218747963e+00  2.9199011482595179e+00  2.8581818240933461e+00  2.7994107118880156e+00  2.7438148693168918e+00  2.6914902796506817e+00  2.6424254776244593e+00  2.5965304100536746e+00  2.5536656820135288e+00  2.5136686899258138e+00  2.4763747326096217e+00  2.4416325695937973e+00  2.4093148413020149e+00  2.3793242536850445e+00  2.3515965536186600e+00  2.3261012164609340e+00  2.3028405637431266e+00  2.2818478314012172e+00  2.2631845911425708e+00  2.2469379356578254e+00  2.2332179700630865e+00  2.2221564348911254e+00  2.2139074860672241e+00  2.2086546270534089e+00  2.2066177572192722e+00  4.0920995151330626e+00  4.0896831999958456e+00  4.0835570783729489e+00  4.0739497324928680e+00  4.0610189542427708e+00  4.0448747951533592e+00  4.0255842302141849e+00  4.0031750658411536e+00  3.9776377694145113e+00  3.9489272280362790e+00  3.9169653496306163e+00  3.8816454399535689e+00  3.8428392322440859e+00  3.8004073840556432e+00  3.7542141598044947e+00  3.7041468004251898e+00  3.6501396370125745e+00  3.5922022295586924e+00  3.5304496529266896e+00  3.4651315801856457e+00  3.3966552983175973e+00  3.3255967446943480e+00  3.2526937619913432e+00  3.1788176590485664e+00  3.1049230040352587e+00  3.0319807019648395e+00  2.9609042798079570e+00  2.8924820080130669e+00  2.8273266882220405e+00  2.7658506896327193e+00  2.7082676631280003e+00  2.6546165498223142e+00  2.6047998518316096e+00  2.5586272990235366e+00  2.5158575134826369e+00  2.4762329195016024e+00  2.4395058719207747e+00  2.4054560823962765e+00  2.3739006758462171e+00  2.3446986981238087e+00  2.3177518579363841e+00  2.2930029714536588e+00  2.2704331841834455e+00  2.2500586999708809e+00  2.2319275184164318e+00  2.2161165934542875e+00  2.2027298453953468e+00  2.1918975166981132e+00  2.1837782016336420e+00  2.1785630644940150e+00  2.1764963386586933e+00  4.1237275934604565e+00  4.1212742110923148e+00  4.1151478577315705e+00  4.1055923434165251e+00  4.0927634049137538e+00  4.0767626012664850e+00  4.0576395449368512e+00  4.0353963988752293e+00  4.0099897846062014e+00  3.9813325026220565e+00  3.9492958710145531e+00  3.9137137175315124e+00  3.8743891592398092e+00  3.8311053975255067e+00  3.7836418096190632e+00  3.7317965178890984e+00  3.6754162034064772e+00  3.6144330041198884e+00  3.5489067312286240e+00  3.4790683246732832e+00  3.4053577363193841e+00  3.3284470337873886e+00  3.2492386923669834e+00  3.1688311629066326e+00  3.0884496306892140e+00  3.0093486392653230e+00  2.9327022357894350e+00  2.8595026905676337e+00  2.7904877414334539e+00  2.7261086577103817e+00  2.6665403098648026e+00  2.6117243925362339e+00  2.5614313877543187e+00  2.5153265932580107e+00  2.4730291103462938e+00  2.4341577202816573e+00  2.3983621151379908e+00  2.3653410035443145e+00  2.3348500784063906e+00  2.3067030956111085e+00  2.2807688788462306e+00  2.2569663619025557e+00  2.2352590824857148e+00  2.2156499913978394e+00  2.1981770819763833e+00  2.1829101681606984e+00  2.1699490836210105e+00  2.1594235056569109e+00  2.1514959367065609e+00  2.1463641013062080e+00  2.1442915056414313e+00  4.1573289764628099e+00  4.1548625169855455e+00  4.1487863047475741e+00  4.1393535562480963e+00  4.1267155169986429e+00  4.1109631989095679e+00  4.0921276583982298e+00  4.0701845856927186e+00  4.0450557422889721e+00  4.0166099363023946e+00  3.9846642801677383e+00  3.9489868656040623e+00  3.9093022527452290e+00  3.8653014691540672e+00  3.8166585141748088e+00  3.7630555257253366e+00  3.7042185575474678e+00  3.6399649951320856e+00  3.5702616167915129e+00  3.4952889022001590e+00  3.4155025435881190e+00  3.3316781939746480e+00  3.2449223656254924e+00  3.1566339286230445e+00  3.0684091509955689e+00  2.9818982580045441e+00  2.8986384210929317e+00  2.8198991692167286e+00  2.7465749073491792e+00  2.6791450019710346e+00  2.6177012233270873e+00  2.5620246625953227e+00  2.5116860288309630e+00  2.4661450924606685e+00  2.4248330919929684e+00  2.3872112526873823e+00  2.3528058313741878e+00  2.3212241705469352e+00  2.2921575420036291e+00  2.2653761114213791e+00  2.2407201315963006e+00  2.2180901297075231e+00  2.1974377292661242e+00  2.1787579520943412e+00  2.1620833647454782e+00  2.1474802036844483e+00  2.1350465331489374e+00  2.1249123776220373e+00  2.1172434585019997e+00  2.1122424708782424e+00  2.1101868303299431e+00  4.1927622641556130e+00  4.1903071137500341e+00  4.1843362092234297e+00  4.1751062848184164e+00  4.1627616415187045e+00  4.1473810562556519e+00  4.1289764176807742e+00  4.1074969272990289e+00  4.0828295278693139e+00  4.0547984059805247e+00  4.0231642483391861e+00  3.9876244441203097e+00  3.9478158535846890e+00  3.9033223155997039e+00  3.8536897281550653e+00  3.7984521644072911e+00  3.7371727863489892e+00  3.6695027663362194e+00  3.5952592725619543e+00  3.5145190006334248e+00  3.4277163320322255e+00  3.3357258403639487e+00  3.2399006805867754e+00  3.1420369620956183e+00  3.0442455108751663e+00  2.9487381374736077e+00  2.8575681392469385e+00  2.7723882415621812e+00  2.6942883728455946e+00  2.6237482625829802e+00  2.5607001198075103e+00  2.5046649223948778e+00  2.4549146333249476e+00  2.4106206736402194e+00  2.3709663625920028e+00  2.3352178144302282e+00  2.3027587340283526e+00  2.2730991473171942e+00  2.2458682341423031e+00  2.2207993707328297e+00  2.1977128867505469e+00  2.1764997688323469e+00  2.1571078984959478e+00  2.1395313859860003e+00  2.1238030163773538e+00  2.1099896089907215e+00  2.0981900529822686e+00  2.0885357013411738e+00  2.0811947424889015e+00  2.0763729099225636e+00  2.0743559363483861e+00  4.2298922678345576e+00  4.2274731801702110e+00  4.2216664902547389e+00  4.2127266791349731e+00  4.2007888790543984e+00  4.1859185548773254e+00  4.1681087098921559e+00  4.1472832561172996e+00  4.1232959424446642e+00  4.0959276889519760e+00  4.0648828856234998e+00  4.0297858031858471e+00  3.9901788405728880e+00  3.9455251656969366e+00  3.8952194384116208e+00  3.8386116490411579e+00  3.7750503650786835e+00  3.7039521690593720e+00  3.6249025645139108e+00  3.5377883648569948e+00  3.4429508063493217e+00  3.3413320978080430e+00  3.2345696405610544e+00  3.1249816983666414e+00  3.0154001446604961e+00  2.9088489991855586e+00  2.8081315007793393e+00  2.7154399748229245e+00  2.6321050506674339e+00  2.5585459072252155e+00  2.4944039613548297e+00  2.4387844269551349e+00  2.3905179422815919e+00  2.3483786897665029e+00  2.3112317436664327e+00  2.2781112559006513e+00  2.2482459011890028e+00  2.2210511799084243e+00  2.1961050183787050e+00  2.1731179654168566e+00  2.1519045647834685e+00  2.1323590462621818e+00  2.1144363426304680e+00  2.0981383057487371e+00  2.0835045188323353e+00  2.0706070126634097e+00  2.0595482809776122e+00  2.0504620106608082e+00  2.0435180388766385e+00  2.0389229463402012e+00  2.0369650615929498e+00  4.2685853075588760e+00  4.2662271693320681e+00  4.2606459364913629e+00  4.2520883637692757e+00  4.2406786104619609e+00  4.2264685363565127e+00  4.2094336621260400e+00  4.1894753481941773e+00  4.1664178396169183e+00  4.1400028541576308e+00  4.1098820463001875e+00  4.0756082791323625e+00  4.0366273041401035e+00  3.9922725292264696e+00  3.9417672062510638e+00  3.8842406559509564e+00  3.8187679206563723e+00  3.7444448173549452e+00  3.6605111006355182e+00  3.5665302513941817e+00  3.4626208938126570e+00  3.3497082520346551e+00  3.2297264119124884e+00  3.1056688114552440e+00  2.9813865577512910e+00  2.8611026084030526e+00  2.7487373957143912e+00  2.6472591364215083e+00  2.5582854118393881e+00  2.4820492126732319e+00  2.4176762924591131e+00  2.3636144599350710e+00  2.3180524362006460e+00  2.2792311314650844e+00  2.2456233408777067e+00  2.2160040437997544e+00  2.1894491304600194e+00  2.1652970470296737e+00  2.1430975282389428e+00  2.1225613688501421e+00  2.1035177129761005e+00  2.0858807942337609e+00  2.0696257219495631e+00  2.0547719651539174e+00  2.0413730087499640e+00  2.0295108463056648e+00  2.0192942810709598e+00  2.0108601897934526e+00  2.0043790826047738e+00  2.0000559609736674e+00  1.9981759916709485e+00  4.3087044311594749e+00  4.3064318614875985e+00  4.3011379374170833e+00  4.2930566565887771e+00  4.2822999371415280e+00  4.2689066043317769e+00  4.2528373238322406e+00  4.2339753647451372e+00  4.2121215634794424e+00  4.1869858198112437e+00  4.1581750973737677e+00  4.1251784135050586e+00  4.0873499456894935e+00  4.0438925780174939e