<?xml version="1.0"?>
<VTKFile type="UnstructuredGrid"  version="0.1"  >
<UnstructuredGrid>
<Piece  NumberOfPoints="5101" NumberOfCells="10000">
<Points>
<DataArray  type="Float64"  NumberOfComponents="3"  format="ascii">0 0 0  0.2 0 0  0.4 0 0  0.6 0 0  0.8 0 0  1 0 0  1.2 0 0  1.4 0 0  1.6 0 0  1.8 0 0  2 0 0  2.2 0 0  2.4 0 0  2.6 0 0  2.8 0 0  3 0 0  3.2 0 0  3.4 0 0  3.6 0 0  3.8 0 0  4 0 0  4.2 0 0  4.4 0 0  4.6 0 0  4.8 0 0  5 0 0  5.2 0 0  5.4 0 0  5.6 0 0  5.8 0 0  6 0 0  6.2 0 0  6.4 0 0  6.6 0 0  6.8 0 0  7 0 0  7.2 0 0  7.4 0 0  7.6 0 0  7.8 0 0  8 0 0  8.199999999999999 0 0  8.4 0 0  8.6 0 0  8.800000000000001 0 0  9 0 0  9.199999999999999 0 0  9.4 0 0  9.6 0 0  9.800000000000001 0 0  10 0 0  0 0.2 0  0.2 0.2 0  0.4 0.2 0  0.6 0.2 0  0.8 0.2 0  1 0.2 0  1.2 0.2 0  1.4 0.2 0  1.6 0.2 0  1.8 0.2 0  2 0.2 0  2.2 0.2 0  2.4 0.2 0  2.6 0.2 0  2.8 0.2 0  3 0.2 0  3.2 0.2 0  3.4 0.2 0  3.6 0.2 0  3.8 0.2 0  4 0.2 0  4.2 0.2 0  4.4 0.2 0  4.6 0.2 0  4.8 0.2 0  5 0.2 0  5.2 0.2 0  5.4 0.2 0  5.6 0.2 0  5.8 0.2 0  6 0.2 0  6.2 0.2 0  6.4 0.2 0  6.6 0.2 0  6.8 0.2 0  7 0.2 0  7.2 0.2 0  7.4 0.2 0  7.6 0.2 0  7.8 0.2 0  8 0.2 0  8.199999999999999 0.2 0  8.4 0.2 0  8.6 0.2 0  8.800000000000001 0.2 0  9 0.2 0  9.199999999999999 0.2 0  9.4 0.2 0  9.6 0.2 0  9.800000000000001 0.2 0  10 0.2 0  0 0.4 0  0.2 0.4 0  0.4 0.4 0  0.6 0.4 0  0.8 0.4 0  1 0.4 0  1.2 0.4 0  1.4 0.4 0  1.6 0.4 0  1.8 0.4 0  2 0.4 0  2.2 0.4 0  2.4 0.4 0  2.6 0.4 0  2.8 0.4 0  3 0.4 0  3.2 0.4 0  3.4 0.4 0  3.6 0.4 0  3.8 0.4 0  4 0.4 0  4.2 0.4 0  4.4 0.4 0  4.6 0.4 0  4.8 0.4 0  5 0.4 0  5.2 0.4 0  5.4 0.4 0  5.6 0.4 0  5.8 0.4 0  6 0.4 0  6.2 0.4 0  6.4 0.4 0  6.6 0.4 0  6.8 0.4 0  7 0.4 0  7.2 0.4 0  7.4 0.4 0  7.6 0.4 0  7.8 0.4 0  8 0.4 0  8.199999999999999 0.4 0  8.4 0.4 0  8.6 0.4 0  8.800000000000001 0.4 0  9 0.4 0  9.199999999999999 0.4 0  9.4 0.4 0  9.6 0.4 0  9.800000000000001 0.4 0  10 0.4 0  0 0.6 0  0.2 0.6 0  0.4 0.6 0  0.6 0.6 0  0.8 0.6 0  1 0.6 0  1.2 0.6 0  1.4 0.6 0  1.6 0.6 0  1.8 0.6 0  2 0.6 0  2.2 0.6 0  2.4 0.6 0  2.6 0.6 0  2.8 0.6 0  3 0.6 0  3.2 0.6 0  3.4 0.6 0  3.6 0.6 0  3.8 0.6 0  4 0.6 0  4.2 0.6 0  4.4 0.6 0  4.6 0.6 0  4.8 0.6 0  5 0.6 0  5.2 0.6 0  5.4 0.6 0  5.6 0.6 0  5.8 0.6 0  6 0.6 0  6.2 0.6 0  6.4 0.6 0  6.6 0.6 0  6.8 0.6 0  7 0.6 0  7.2 0.6 0  7.4 0.6 0  7.6 0.6 0  7.8 0.6 0  8 0.6 0  8.199999999999999 0.6 0  8.4 0.6 0  8.6 0.6 0  8.800000000000001 0.6 0  9 0.6 0  9.199999999999999 0.6 0  9.4 0.6 0  9.6 0.6 0  9.800000000000001 0.6 0  10 0.6 0  0 0.8 0  0.2 0.8 0  0.4 0.8 0  0.6 0.8 0  0.8 0.8 0  1 0.8 0  1.2 0.8 0  1.4 0.8 0  1.6 0.8 0  1.8 0.8 0  2 0.8 0  2.2 0.8 0  2.4 0.8 0  2.6 0.8 0  2.8 0.8 0  3 0.8 0  3.2 0.8 0  3.4 0.8 0  3.6 0.8 0  3.8 0.8 0  4 0.8 0  4.2 0.8 0  4.4 0.8 0  4.6 0.8 0  4.8 0.8 0  5 0.8 0  5.2 0.8 0  5.4 0.8 0  5.6 0.8 0  5.8 0.8 0  6 0.8 0  6.2 0.8 0  6.4 0.8 0  6.6 0.8 0  6.8 0.8 0  7 0.8 0  7.2 0.8 0  7.4 0.8 0  7.6 0.8 0  7.8 0.8 0  8 0.8 0  8.199999999999999 0.8 0  8.4 0.8 0  8.6 0.8 0  8.800000000000001 0.8 0  9 0.8 0  9.199999999999999 0.8 0  9.4 0.8 0  9.6 0.8 0  9.800000000000001 0.8 0  10 0.8 0  0 1 0  0.2 1 0  0.4 1 0  0.6 1 0  0.8 1 0  1 1 0  1.2 1 0  1.4 1 0  1.6 1 0  1.8 1 0  2 1 0  2.2 1 0  2.4 1 0  2.6 1 0  2.8 1 0  3 1 0  3.2 1 0  3.4 1 0  3.6 1 0  3.8 1 0  4 1 0  4.2 1 0  4.4 1 0  4.6 1 0  4.8 1 0  5 1 0  5.2 1 0  5.4 1 0  5.6 1 0  5.8 1 0  6 1 0  6.2 1 0  6.4 1 0  6.6 1 0  6.8 1 0  7 1 0  7.2 1 0  7.4 1 0  7.6 1 0  7.8 1 0  8 1 0  8.199999999999999 1 0  8.4 1 0  8.6 1 0  8.800000000000001 1 0  9 1 0  9.199999999999999 1 0  9.4 1 0  9.6 1 0  9.800000000000001 1 0  10 1 0  0 1.2 0  0.2 1.2 0  0.4 1.2 0  0.6 1.2 0  0.8 1.2 0  1 1.2 0  1.2 1.2 0  1.4 1.2 0  1.6 1.2 0  1.8 1.2 0  2 1.2 0  2.2 1.2 0  2.4 1.2 0  2.6 1.2 0  2.8 1.2 0  3 1.2 0  3.2 1.2 0  3.4 1.2 0  3.6 1.2 0  3.8 1.2 0  4 1.2 0  4.2 1.2 0  4.4 1.2 0  4.6 1.2 0  4.8 1.2 0  5 1.2 0  5.2 1.2 0  5.4 1.2 0  5.6 1.2 0  5.8 1.2 0  6 1.2 0  6.2 1.2 0  6.4 1.2 0  6.6 1.2 0  6.8 1.2 0  7 1.2 0  7.2 1.2 0  7.4 1.2 0  7.6 1.2 0  7.8 1.2 0  8 1.2 0  8.199999999999999 1.2 0  8.4 1.2 0  8.6 1.2 0  8.800000000000001 1.2 0  9 1.2 0  9.199999999999999 1.2 0  9.4 1.2 0  9.6 1.2 0  9.800000000000001 1.2 0  10 1.2 0  0 1.4 0  0.2 1.4 0  0.4 1.4 0  0.6 1.4 0  0.8 1.4 0  1 1.4 0  1.2 1.4 0  1.4 1.4 0  1.6 1.4 0  1.8 1.4 0  2 1.4 0  2.2 1.4 0  2.4 1.4 0  2.6 1.4 0  2.8 1.4 0  3 1.4 0  3.2 1.4 0  3.4 1.4 0  3.6 1.4 0  3.8 1.4 0  4 1.4 0  4.2 1.4 0  4.4 1.4 0  4.6 1.4 0  4.8 1.4 0  5 1.4 0  5.2 1.4 0  5.4 1.4 0  5.6 1.4 0  5.8 1.4 0  6 1.4 0  6.2 1.4 0  6.4 1.4 0  6.6 1.4 0  6.8 1.4 0  7 1.4 0  7.2 1.4 0  7.4 1.4 0  7.6 1.4 0  7.8 1.4 0  8 1.4 0  8.199999999999999 1.4 0  8.4 1.4 0  8.6 1.4 0  8.800000000000001 1.4 0  9 1.4 0  9.199999999999999 1.4 0  9.4 1.4 0  9.6 1.4 0  9.800000000000001 1.4 0  10 1.4 0  0 1.6 0  0.2 1.6 0  0.4 1.6 0  0.6 1.6 0  0.8 1.6 0  1 1.6 0  1.2 1.6 0  1.4 1.6 0  1.6 1.6 0  1.8 1.6 0  2 1.6 0  2.2 1.6 0  2.4 1.6 0  2.6 1.6 0  2.8 1.6 0  3 1.6 0  3.2 1.6 0  3.4 1.6 0  3.6 1.6 0  3.8 1.6 0  4 1.6 0  4.2 1.6 0  4.4 1.6 0  4.6 1.6 0  4.8 1.6 0  5 1.6 0  5.2 1.6 0  5.4 1.6 0  5.6 1.6 0  5.8 1.6 0  6 1.6 0  6.2 1.6 0  6.4 1.6 0  6.6 1.6 0  6.8 1.6 0  7 1.6 0  7.2 1.6 0  7.4 1.6 0  7.6 1.6 0  7.8 1.6 0  8 1.6 0  8.199999999999999 1.6 0  8.4 1.6 0  8.6 1.6 0  8.800000000000001 1.6 0  9 1.6 0  9.199999999999999 1.6 0  9.4 1.6 0  9.6 1.6 0  9.800000000000001 1.6 0  10 1.6 0  0 1.8 0  0.2 1.8 0  0.4 1.8 0  0.6 1.8 0  0.8 1.8 0  1 1.8 0  1.2 1.8 0  1.4 1.8 0  1.6 1.8 0  1.8 1.8 0  2 1.8 0  2.2 1.8 0  2.4 1.8 0  2.6 1.8 0  2.8 1.8 0  3 1.8 0  3.2 1.8 0  3.4 1.8 0  3.6 1.8 0  3.8 1.8 0  4 1.8 0  4.2 1.8 0  4.4 1.8 0  4.6 1.8 0  4.8 1.8 0  5 1.8 0  5.2 1.8 0  5.4 1.8 0  5.6 1.8 0  5.8 1.8 0  6 1.8 0  6.2 1.8 0  6.4 1.8 0  6.6 1.8 0  6.8 1.8 0  7 1.8 0  7.2 1.8 0  7.4 1.8 0  7.6 1.8 0  7.8 1.8 0  8 1.8 0  8.199999999999999 1.8 0  8.4 1.8 0  8.6 1.8 0  8.800000000000001 1.8 0  9 1.8 0  9.199999999999999 1.8 0  9.4 1.8 0  9.6 1.8 0  9.800000000000001 1.8 0  10 1.8 0  0 2 0  0.2 2 0  0.4 2 0  0.6 2 0  0.8 2 0  1 2 0  1.2 2 0  1.4 2 0  1.6 2 0  1.8 2 0  2 2 0  2.2 2 0  2.4 2 0  2.6 2 0  2.8 2 0  3 2 0  3.2 2 0  3.4 2 0  3.6 2 0  3.8 2 0  4 2 0  4.2 2 0  4.4 2 0  4.6 2 0  4.8 2 0  5 2 0  5.2 2 0  5.4 2 0  5.6 2 0  5.8 2 0  6 2 0  6.2 2 0  6.4 2 0  6.6 2 0  6.8 2 0  7 2 0  7.2 2 0  7.4 2 0  7.6 2 0  7.8 2 0  8 2 0  8.199999999999999 2 0  8.4 2 0  8.6 2 0  8.800000000000001 2 0  9 2 0  9.199999999999999 2 0  9.4 2 0  9.6 2 0  9.800000000000001 2 0  10 2 0  0 2.2 0  0.2 2.2 0  0.4 2.2 0  0.6 2.2 0  0.8 2.2 0  1 2.2 0  1.2 2.2 0  1.4 2.2 0  1.6 2.2 0  1.8 2.2 0  2 2.2 0  2.2 2.2 0  2.4 2.2 0  2.6 2.2 0  2.8 2.2 0  3 2.2 0  3.2 2.2 0  3.4 2.2 0  3.6 2.2 0  3.8 2.2 0  4 2.2 0  4.2 2.2 0  4.4 2.2 0  4.6 2.2 0  4.8 2.2 0  5 2.2 0  5.2 2.2 0  5.4 2.2 0  5.6 2.2 0  5.8 2.2 0  6 2.2 0  6.2 2.2 0  6.4 2.2 0  6.6 2.2 0  6.8 2.2 0  7 2.2 0  7.2 2.2 0  7.4 2.2 0  7.6 2.2 0  7.8 2.2 0  8 2.2 0  8.199999999999999 2.2 0  8.4 2.2 0  8.6 2.2 0  8.800000000000001 2.2 0  9 2.2 0  9.199999999999999 2.2 0  9.4 2.2 0  9.6 2.2 0  9.800000000000001 2.2 0  10 2.2 0  0 2.4 0  0.2 2.4 0  0.4 2.4 0  0.6 2.4 0  0.8 2.4 0  1 2.4 0  1.2 2.4 0  1.4 2.4 0  1.6 2.4 0  1.8 2.4 0  2 2.4 0  2.2 2.4 0  2.4 2.4 0  2.6 2.4 0  2.8 2.4 0  3 2.4 0  3.2 2.4 0  3.4 2.4 0  3.6 2.4 0  3.8 2.4 0  4 2.4 0  4.2 2.4 0  4.4 2.4 0  4.6 2.4 0  4.8 2.4 0  5 2.4 0  5.2 2.4 0  5.4 2.4 0  5.6 2.4 0  5.8 2.4 0  6 2.4 0  6.2 2.4 0  6.4 2.4 0  6.6 2.4 0  6.8 2.4 0  7 2.4 0  7.2 2.4 0  7.4 2.4 0  7.6 2.4 0  7.8 2.4 0  8 2.4 0  8.199999999999999 2.4 0  8.4 2.4 0  8.6 2.4 0  8.800000000000001 2.4 0  9 2.4 0  9.199999999999999 2.4 0  9.4 2.4 0  9.6 2.4 0  9.800000000000001 2.4 0  10 2.4 0  0 2.6 0  0.2 2.6 0  0.4 2.6 0  0.6 2.6 0  0.8 2.6 0  1 2.6 0  1.2 2.6 0  1.4 2.6 0  1.6 2.6 0  1.8 2.6 0  2 2.6 0  2.2 2.6 0  2.4 2.6 0  2.6 2.6 0  2.8 2.6 0  3 2.6 0  3.2 2.6 0  3.4 2.6 0  3.6 2.6 0  3.8 2.6 0  4 2.6 0  4.2 2.6 0  4.4 2.6 0  4.6 2.6 0  4.8 2.6 0  5 2.6 0  5.2 2.6 0  5.4 2.6 0  5.6 2.6 0  5.8 2.6 0  6 2.6 0  6.2 2.6 0  6.4 2.6 0  6.6 2.6 0  6.8 2.6 0  7 2.6 0  7.2 2.6 0  7.4 2.6 0  7.6 2.6 0  7.8 2.6 0  8 2.6 0  8.199999999999999 2.6 0  8.4 2.6 0  8.6 2.6 0  8.800000000000001 2.6 0  9 2.6 0  9.199999999999999 2.6 0  9.4 2.6 0  9.6 2.6 0  9.800000000000001 2.6 0  10 2.6 0  0 2.8 0  0.2 2.8 0  0.4 2.8 0  0.6 2.8 0  0.8 2.8 0  1 2.8 0  1.2 2.8 0  1.4 2.8 0  1.6 2.8 0  1.8 2.8 0  2 2.8 0  2.2 2.8 0  2.4 2.8 0  2.6 2.8 0  2.8 2.8 0  3 2.8 0  3.2 2.8 0  3.4 2.8 0  3.6 2.8 0  3.8 2.8 0  4 2.8 0  4.2 2.8 0  4.4 2.8 0  4.6 2.8 0  4.8 2.8 0  5 2.8 0  5.2 2.8 0  5.4 2.8 0  5.6 2.8 0  5.8 2.8 0  6 2.8 0  6.2 2.8 0  6.4 2.8 0  6.6 2.8 0  6.8 2.8 0  7 2.8 0  7.2 2.8 0  7.4 2.8 0  7.6 2.8 0  7.8 2.8 0  8 2.8 0  8.199999999999999 2.8 0  8.4 2.8 0  8.6 2.8 0  8.800000000000001 2.8 0  9 2.8 0  9.199999999999999 2.8 0  9.4 2.8 0  9.6 2.8 0  9.800000000000001 2.8 0  10 2.8 0  0 3 0  0.2 3 0  0.4 3 0  0.6 3 0  0.8 3 0  1 3 0  1.2 3 0  1.4 3 0  1.6 3 0  1.8 3 0  2 3 0  2.2 3 0  2.4 3 0  2.6 3 0  2.8 3 0  3 3 0  3.2 3 0  3.4 3 0  3.6 3 0  3.8 3 0  4 3 0  4.2 3 0  4.4 3 0  4.6 3 0  4.8 3 0  5 3 0  5.2 3 0  5.4 3 0  5.6 3 0  5.8 3 0  6 3 0  6.2 3 0  6.4 3 0  6.6 3 0  6.8 3 0  7 3 0  7.2 3 0  7.4 3 0  7.6 3 0  7.8 3 0  8 3 0  8.199999999999999 3 0  8.4 3 0  8.6 3 0  8.800000000000001 3 0  9 3 0  9.199999999999999 3 0  9.4 3 0  9.6 3 0  9.800000000000001 3 0  10 3 0  0 3.2 0  0.2 3.2 0  0.4 3.2 0  0.6 3.2 0  0.8 3.2 0  1 3.2 0  1.2 3.2 0  1.4 3.2 0  1.6 3.2 0  1.8 3.2 0  2 3.2 0  2.2 3.2 0  2.4 3.2 0  2.6 3.2 0  2.8 3.2 0  3 3.2 0  3.2 3.2 0  3.4 3.2 0  3.6 3.2 0  3.8 3.2 0  4 3.2 0  4.2 3.2 0  4.4 3.2 0  4.6 3.2 0  4.8 3.2 0  5 3.2 0  5.2 3.2 0  5.4 3.2 0  5.6 3.2 0  5.8 3.2 0  6 3.2 0  6.2 3.2 0  6.4 3.2 0  6.6 3.2 0  6.8 3.2 0  7 3.2 0  7.2 3.2 0  7.4 3.2 0  7.6 3.2 0  7.8 3.2 0  8 3.2 0  8.199999999999999 3.2 0  8.4 3.2 0  8.6 3.2 0  8.800000000000001 3.2 0  9 3.2 0  9.199999999999999 3.2 0  9.4 3.2 0  9.6 3.2 0  9.800000000000001 3.2 0  10 3.2 0  0 3.4 0  0.2 3.4 0  0.4 3.4 0  0.6 3.4 0  0.8 3.4 0  1 
[...]
<PointData  Scalars="f_14"> 
<DataArray  type="Float64"  Name="f_14"  format="ascii">9.7174801135216260e-01  9.6971871403826226e-01  9.6460310791133108e-01  9.5770277252507963e-01  9.5000174335693033e-01  9.4217550251908122e-01  9.3465925946133266e-01  9.2771297583573220e-01  9.2147294838632632e-01  9.1599047699388414e-01  9.1126041561930016e-01  9.0724201730456744e-01  9.0387396403160669e-01  9.0108499401862641e-01  8.9880119530554048e-01  8.9695079488702223e-01  8.9546709957162207e-01  8.9429011122081281e-01  8.9336722942561897e-01  8.9265336164198383e-01  8.9211068159862517e-01  8.9170821063271799e-01  8.9142134311401511e-01  8.9123139560712417e-01  8.9112522874967159e-01  8.9109496944765287e-01  8.9113784709438248e-01  8.9125614912990136e-01  8.9145729630000603e-01  8.9175403431077482e-01  8.9216473402075924e-01  8.9271378465626383e-01  8.9343205157003414e-01  8.9435734965450631e-01  8.9553485370216335e-01  8.9701732611933416e-01  8.9886498924154712e-01  9.0114480338787861e-01  9.0392883239266519e-01  9.0729128496687350e-01  9.1130371023000278e-01  9.1602769183121990e-01  9.2150421167782670e-01  9.2773861448174300e-01  9.3467976049544410e-01  9.4219147556418315e-01  9.5001388729989411e-01  9.5771184966457701e-01  9.6460992858140870e-01  9.6972413430308269e-01  9.7175294450640881e-01  9.6971955175481095e-01  9.6888668160668234e-01  9.6555252072210651e-01  9.6023204211560831e-01  9.5380423264694791e-01  9.4697581843926126e-01  9.4023569132373552e-01  9.3389315473596102e-01  9.2812404192186992e-01  9.2300999974902775e-01  9.1856888819524429e-01  9.1477743041067927e-01  9.1158767800306828e-01  9.0893869916202563e-01  9.0676463530223106e-01  9.0500003678491248e-01  9.0358319896312522e-01  9.0245806789584904e-01  9.0157516051683950e-01  9.0089184027774727e-01  9.0037220288494479e-01  8.9998675594888444e-01  8.9971201991708138e-01  8.9953013425139927e-01  8.9942852086607883e-01  8.9939963455446870e-01  8.9944081552695299e-01  8.9955425019177526e-01  8.9974704080643375e-01  9.0003138043558284e-01  9.0042482455481199e-01  9.0095064238713951e-01  9.0163821738782157e-01  9.0252344497314718e-01  9.0364904449442063e-01  9.0506465966456218e-01  9.0682656552258079e-01  9.0899672925700281e-01  9.1164088560815282e-01  9.1482518344693342e-01  9.1861083515034536e-01  9.2304604809456503e-01  9.2815432795003683e-01  9.3391800812192338e-01  9.4025559762095290e-01  9.4699138255799553e-01  9.5381614616538224e-01  9.6024105700922491e-01  9.6555943154324109e-01  9.6889231493824335e-01  9.6972475511797651e-01  9.6460647988041726e-01  9.6555502133513005e-01  9.6558470955761044e-01  9.6360628515111912e-01  9.6002079418857778e-01  9.5548256691328781e-01  9.5055137438894666e-01  9.4562867177255061e-01  9.4097324916113745e-01  9.3673391360164870e-01  9.3298087933319285e-01  9.2973123624525122e-01  9.2696819486740789e-01  9.2465502344654260e-01  9.2274479699283984e-01  9.2118697398173643e-01  9.1993164006966199e-01  9.1893208446794672e-01  9.1814622347784181e-01  9.1753725990539581e-01  9.1707386481264275e-01  9.1673008660072686e-01  9.1648512903952106e-01  9.1632309195025641e-01  9.1623273330346944e-01  9.1620728709003396e-01  9.1624435511044766e-01  9.1634588051648291e-01  9.1651820426596220e-01  9.1677220034498907e-01  9.1712347936765148e-01  9.1759264062635071e-01  9.1820553742589817e-01  9.1899349712721512e-01  9.1999340324273415e-01  9.2124749962453567e-01  9.2280271370471245e-01  9.2470921428802866e-01  9.2701781689819907e-01  9.2977572350945958e-01  9.3301993191392796e-01  9.3676747584752929e-01  9.4100148033069486e-01  9.4565191224141842e-01  9.5057011029246385e-01  9.5549739567864411e-01  9.6003239276926233e-01  9.6361538157752524e-01  9.6559205670351267e-01  9.6556136496707845e-01  9.6461250366447682e-01  9.5771063489982022e-01  9.6023893392168214e-01  9.6361053612767267e-01  9.6528662077657568e-01  9.6500473211065974e-01  9.6322799381301849e-01  9.6052630046015552e-01  9.5737667934560122e-01  9.5412320482184432e-01  9.5099058036456829e-01  9.4811115318935846e-01  9.4555123992778289e-01  9.4333263758299024e-01  9.4144884492960834e-01  9.3987670677246538e-01  9.3858445387566602e-01  9.3753704772649693e-01  9.3669958292249089e-01  9.3603933547477292e-01  9.3552690044941000e-01  9.3513674359592147e-01  9.3484739795968097e-01  9.3464146469954423e-01  9.3450552378488749e-01  9.3443002147947740e-01  9.3440917442906990e-01  9.3444091196450685e-01  9.3452686634405779e-01  9.3467241264084988e-01  9.3488675342143757e-01  9.3518303582027806e-01  9.3557847758176083e-01  9.3609446149915521e-01  9.3675653166133088e-01  9.3759418705303110e-01  9.3864031511490520e-01  9.3993003635854366e-01  9.4149863742284667e-01  9.4337815088374033e-01  9.4559199481271639e-01  9.4814692009680657e-01  9.5102135670511434e-01  9.5414918606755550e-01  9.5739822683604803e-01  9.6054390829407321e-01  9.6324225632490690e-01  9.6501631208364202e-01  9.6529621637781871e-01  9.6361884110750140e-01  9.6024658003413876e-01  9.5771809424762266e-01  9.5001662597522896e-01  9.5381794067232839e-01  9.6003146833579311e-01  9.6501083546569089e-01  9.6786686023314983e-01  9.6880674778306375e-01  9.6834994103975758e-01  9.6701233614151472e-01  9.6520492460715290e-01  9.6322040844512957e-01  9.6125057210279530e-01  9.5941057939030161e-01  9.5776133063475677e-01  9.5632732740717541e-01  9.5510995037570068e-01  9.5409687274567223e-01  9.5326848790508867e-01  9.5260214571836066e-01  9.5207484050979896e-01  9.5166484183188316e-01  9.5135262887261685e-01  9.5112138535783897e-01  9.5095723211228478e-01  9.5084931521743132e-01  9.5078982493563824e-01  9.5077399063059176e-01  9.5080007662429122e-01  9.5086939045198016e-01  9.5098630566179276e-01  9.5115829357238579e-01  9.5139594963825935e-01  9.5171298757598688e-01  9.5212615532269473e-01  9.5265499815554988e-01  9.5332135251006878e-01  9.5414839543174701e-01  9.5515899512663049e-01  9.5637300394212932e-01  9.5780300447205191e-01  9.5944786699766638e-01  9.6128332451223575e-01  9.6324868688957099e-01  9.6522897148750897e-01  9.6703254402136174e-01  9.6836682138740926e-01  9.6882089972827079e-01  9.6787893744699749e-01  9.6502150617122218e-01  9.6004135960501424e-01  9.5382755380906026e-01  9.5002619774566643e-01  9.4220082662479898e-01  9.4699961587187564e-01  9.5550257190928412e-01  9.6324262184720588e-01  9.6881473862113199e-01  9.7217384113250116e-01  9.7375828214757043e-01  9.7409208763600030e-01  9.7363105908657999e-01  9.7272180205838388e-01  9.7160691724416604e-01  9.7044512007442862e-01  9.6933304222008698e-01  9.6832392012669788e-01  9.6744205298406971e-01  9.6669334432241905e-01  9.6607267882644154e-01  9.6556891665746847e-01  9.6516817484549644e-01  9.6485592042231372e-01  9.6461826560173902e-01  9.6444274456558754e-01  9.6431876544989381e-01  9.6423786691302460e-01  9.6419386216636271e-01  9.6418292067494427e-01  9.6420361544591704e-01  9.6425694885527125e-01  9.6434635947994363e-01  9.6447770363957930e-01  9.6465919551143797e-01  9.6490127585536789e-01  9.6521635848838738e-01  9.6561837233616687e-01  9.6612197147249546e-01  9.6674122199899959e-01  9.6748748883545943e-01  9.6836613451396969e-01  9.6937150718990417e-01  9.7047954953913829e-01  9.7163724682000030e-01  9.7274816248592944e-01  9.7365374663521620e-01  9.7411153392163341e-01  9.7377502432743246e-01  9.7218849132381546e-01  9.6882794840078357e-01  9.6325503383401256e-01  9.5551474646722179e-01  9.4701191826524289e-01  9.4221324212063895e-01  9.3469965086557927e-01  9.4027400898557134e-01  9.5058465879070086e-01  9.6055275539216889e-01  9.6836850143452657e-01  9.7376810366020872e-01  9.7710324008510852e-01  9.7888827694232494e-01  9.7960617019239549e-01  9.7964355492610300e-01  9.7928383115407591e-01  9.7872220122429388e-01  9.7808600123396361e-01  9.7745353530827483e-01  9.7686926615863179e-01  9.7635520326798952e-01  9.7591905309159444e-01  9.7555985917334487e-01  9.7527180204352149e-01  9.7504670198299126e-01  9.7487563601562710e-01  9.7474996683452331e-01  9.7466199119973651e-01  9.7460534723088676e-01  9.7457527036701563e-01  9.7456875269756005e-01  9.7458463629607339e-01  9.7462365487651259e-01  9.7468842653521848e-01  9.7478339061906805e-01  9.7491467091800699e-01  9.7508983234112712e-01  9.7531747572226746e-01  9.7560658186068039e-01  9.7596546746512136e-01  9.7640014827124244e-01  9.7691181460039200e-01  9.7749301065917593e-01  9.7812197651736488e-01  9.7875448413504318e-01  9.7931243999285511e-01  9.7966868970038301e-01  9.7962818240969918e-01  9.7890764024439247e-01  9.7712052186092591e-01  9.7378393493260740e-01  9.6838353845000846e-01  9.6056762172405608e-01  9.5059985267328151e-01  9.4028975895438671e-01  9.3471567776712017e-01  9.2777456715759821e-01  9.3395187833084958e-01  9.4568051444127244e-01  9.5741943222759340e-01  9.6704503573088241e-01  9.7411436727486367e-01  9.7889979783077419e-01  9.8189863711838055e-01  9.8360937393505665e-01  9.8444758428765888e-01  9.8472839692177605e-01  9.8467651339200435e-01  9.8444468630975690e-01  9.8413227242063239e-01  9.8380081073531223e-01  9.8348600884464932e-01  9.8320649528796100e-01  9.8296998810364911e-01  9.8277753122504874e-01  9.8262634762153844e-01  9.8251173362585409e-01  9.8242830542963733e-01  9.8237081632911194e-01  9.8233469255746397e-01  9.8231638361017115e-01  9.8231358611905750e-01  9.8232537485729876e-01  9.8235225693799466e-01  9.8239615254807566e-01  9.8246029464954665e-01  9.8254902801817889e-01  9.8266747168085755e-01  9.8282098489211178e-01  9.8301434154697953e-01  9.8325046735313892e-01  9.8352852420166825e-01  9.8384103403025158e-01  9.8416962070078473e-01  9.8447882323361469e-01  9.8470733006094346e-01  9.8475598457124491e-01  9.8447220365603916e-01  9.8363142500185952e-01  9.8191863109731070e-01  9.7891833069742540e-01  9.7413209045950588e-01  9.6706261474948818e-01  9.5743747847156280e-01  9.4569947090043249e-01  9.3397183919891935e-01  9.2779497769388253e-01  9.2156366312607274e-01  9.2821079063206968e-01  9.4105052751887863e-01  9.5418815656290945e-01  9.6525658639844902e-01  9.7366951507920430e-01  9.7963183005904075e-01  9.8362242200852934e-01  9.8614847454267351e-01  9.8764647408342421e-01  9.8845593536826015e-01  9.8882497386887847e-01  9.8892692141944816e-01  9.8887839642737363e-01  9.8875504509365886e-01  9.8860393668735036e-01  9.8845277435171330e-01  9.8831648722371046e-01  9.8820182729962602e-01  9.8811051686304363e-01  9.8804137722156338e-01  9.8799175820033736e-01  9.8795849485312270e-01  9.8793854593428576e-01  9.8792941582103988e-01  9.8792942410311835e-01  9.8793786091966529e-01  9.8795504749209873e-01  9.8798230684200794e-01  9.8802183658006393e-01  9.8807646137356753e-01  9.8814922457867349e-01  9.8824275336197098e-01  9.8835829555980703e-01  9.8849427520286670e-01  9.8864414298333625e-01  9.8879320562182904e-01  9.8891400673842944e-01  9.8895971609546585e-01  9.8885490543710053e-01  9.8848314568646878e-01  9.8767126353943735e-01  9.8617127303090735e-01  9.8364376340188808e-01  9.7965232863434371e-01  9.7368983778560914e-01  9.6527740882678614e-01  9.5421008373091853e-01  9.4107395552034534e-01  9.2823568502329201e-01  9.2158918673301216e-01  9.1612028848875282e-01  9.2313437966097733e-01  9.3684534614248383e-01  9.5108529453930180e-01  9.6329733726401956e-01  9.7278146558114020e-01  9.7968713210681291e-01  9.8447623051804267e-01  9.8766085755611477e-01  9.8969281643818341e-01  9.9093035773346339e-01  9.9164002936498108e-01  9.9201161437018404e-01  9.9217566767589893e-01  9.9221929437849576e-01  9.9219882367404377e-01  9.9214936869349413e-01  9.9209175809459249e-01  9.9203743108244113e-01  9.9199183275630554e-01  9.9195674087042440e-01  9.9193184667730550e-01  9.9191582024300906e-01  9.9190701946466953e-01  9.9190395070238169e-01  9.9190555332665331e-01  9.9191135535421970e-01  9.9192152769502384e-01  9.9193684662907400e-01  9.9195855592946713e-01  9.9198810064707343e-01  9.9202668294298801e-01  9.9207456408867201e-01  9.9213000161981912e-01  9.9218766122122071e-01  9.9223627420393778e-01  9.9225522111776543e-01  9.9220961447770506e-01  9.9204334746151479e-01  9.9166951953296090e-01  9.9095775430137523e-01  9.8971841909361358e-01  9.8768509056787090e-01  9.8449962118265211e-01  9.7971029125888753e-01  9.7280506235591702e-01  9.6332205286351957e-01  9.5111173151181050e-01  9.3687386367563108e-01  9.2316482563150348e-01  9.1615154501672913e-01  9.1144157383897328e-01  9.1874271410070985e-01  9.3313723764081591e-01  9.4824505885638577e-01  9.6136075157041279e-01  9.7169432765152697e-01  9.7935046088391309e-01  9.8477641328932464e-01  9.8848713588763171e-01  9.9094584391619966e-01  9.9252523509707691e-01  9.9350631399889078e-01  9.9409190411421833e-01  9.9442368178219143e-01  9.9459793169142741e-01  9.9467841653678202e-01  9.9470620957175615e-01  9.9470690592501376e-01  9.9469577291445077e-01  9.9468136304699650e-01  9.9466801457281928e-01  9.9465755813060519e-01  9.9465045733193258e-01  9.9464654373593708e-01  9.9464546188349301e-01  9.9464691204148870e-01  9.9465075837988970e-01  9.9465705002037608e-01  9.9466597678785995e-01  9.9467775072808573e-01  9.9469237243491992e-01  9.9470921177391303e-01  9.9472630557470110e-01  9.9473924492146648e-01  9.9473948305063331e-01  9.9471183326117574e-01  9.9463084101940513e-01  9.9445561132406024e-01  9.9412257413988159e-01  9.9353563276548451e-01  9.9255328207153404e-01  9.9097284833127430e-01  9.8851345653904776e-01  9.8480252225381093e-01  9.7937692889811678e-01  9.7172180193020807e-01  9.6138990771054522e-01  9.4827649836422823e-01  9.3317129522767872e-01  9.1877913908198772e-01  9.1147898365657054e-01  9.0748923606610710e-01  9.1501490903861538e-01  9.2994552092672456e-01  9.4573580111192146e-01  9.5956383733230388e-01  9.7056848829891385e-01  9.7881853731338031e-01  9.8474905090488951e-01  9.8887666859403467e-01  9.9167320750077026e-01  9.9352252329757129e-01  9.9471690794955658e-01  9.9546942681572159e-01  9.9593051335728588e-01  9.9620368062545961e-01  9.9635853819370035e-01  9.9644085083599843e-01  9.9647999706380919e-01  9.9649435857938284e-01  9.9649514671031669e-01  9.9648907492505168e-01  9.9648017881856621e-01  9.9647099563876118e-01  9.9646325672027503e-01  9.9645821849716265e-01  9.9645675091569563e-01  9.9645929823871793e-01  9.9646580821136599e-01  9.9647568229551020e-01  9.9648773792025724e-01  9.9650011051268483e-01  9.9650997557260956e-01  9.9651294498046172e-01  9.9650197786567463e-01  9.9646562630048119e-01  9.9638539238945356e-01  9.9623189821203595e-01  9.9595947085901615e-01  9.9549864986163428e-01  9.9474609679537862e-01  9.9355155533173078e-01  9.9170212740866681e-01  9.8890567534209095e-01  9.8477848661025713e-01  9.7884887676037891e-01  9.7060031917519107e-01  9.5959781003686029e-01  9.4577251454571465e-01  9.2998530127668577e-01  9.1505743785673543e-01  9.0753290335169690e-01  9.0420456018120332e-01  9.1190554461703555e-01  9.2725576833685874e-01  9.4358148389167829e-01  9.5796946953702189e-01  9.6950238180907211e-01  9.7822034586063067e-01  9.8454839778986436e-01  9.8900413555143185e-01  9.9206586069121361e-01  9.9412599944938174e-01  9.9548556343068539e-01  9.9636553101517145e-01  9.9692307161578719e-01  9.9726721098623539e-01  9.9747197082536687e-01  9.9758663414874738e-01  9.9764345084151229e-01  9.9766328929947923e-01  9.9765971702759693e-01  9.9764188757356542e-01  9.9761649252312201e-01  9.9758894522052666e-01  9.9756392019365081e-01  9.9754538365948786e-01  9.9753629700777913e-01  9.9753821604621118e-01  9.9755099871044506e-01  9.9757275046488503e-01  9.9759999881369732e-01  9.9762794856678405e-01  9.9765058056513600e-01  9.9766033843303259e-01  9.9764717867198438e-01  9.9759679355903275e-01  9.9748781313161961e-01  9.9728773517155223e-01  9.9694723237126159e-01  9.9639238356336557e-01  9.9551434622477308e-01  9.9415616902186665e-01  9.9209709716435512e-01  9.8903633525096779e-01  9.8458166340847608e-01  9.7825497596316080e-01  9.6953885029980102e-01  9.5800837182361709e-01  9.4362341111420389e-01  9.2730105876376967e-01  9.1195385839319587e-01  9.0425412622985035e-01  9.0151896851875990e-01  9.0935629778801819e-01  9.2503369055915174e-01  9.4177785529436620e-01  9.5660421316832656e-01  9.6855114076341009e-01  9.7763593374656055e-01  9.8427540003927649e-01  9.8898756814937883e-01  9.9225554587123199e-01  9.9447822364355687e-01  9.9596318765335456e-01  9.9693732306403704e-01  9.9756272595025930e-01  9.9795232523675925e-01  9.9818313509976708e-01  9.9830673301133432e-01  9.9835725286056354e-01  9.9835738269462559e-01  9.9832282124432148e-01  9.9826551265892827e-01  9.9819582523550210e-01  9.9812372840647468e-01  9.9805900268646441e-01  9.9801061174896666e-01  9.9798554145236107e-01  9.9798757161692930e-01  9.9801647275855332e-01  9.9806794601605897e-01  9.9813429975998313e-01  9.9820552798331652e-01  9.9827027244960276e-01  9.9831616600361217e-01  9.9832920501793365e-01  9.9829196435987322e-01  9.9818055120182292e-01  9.9796016238597740e-01  9.9757899286669427e-01  9.9696010773490873e-01  9.9599083555125678e-01  9.9450941781105962e-01  9.9228932546901349e-01  9.8902331705832813e-01  9.8431282658239483e-01  9.7767504951225070e-01  9.6859223149545115e-01  9.5664777730002670e-01  9.4182446669519115e-01  9.2508372584972831e-01  9.0940946163837610e-01  9.0157343303262250e-01  8.9936124434497899e-01  9.0730393099636042e-01  9.2323482250305500e-01  9.4030403590138367e-01  9.5547154957264191e-01  9.6774100740615954e-01  9.7711155815159334e-01  9.8399323084001811e-01  9.8890404410340726e-01  9.9233051485287405e-01  9.9467621183611121e-01  9.9625342327035071e-01  9.9729311364933959e-01  9.9796055907818337e-01  9.9837091973120551e-01  9.9860259821447594e-01  9.9870795730222017e-01  9.9872169216490125e-01  9.9866735295557008e-01  9.9856244539656602e-01  9.9842233315984552e-01  9.9826292026112495e-01  9.9810190739094817e-01  9.9795841144970809e-01  9.9785099613235739e-01  9.9779464178629251e-01  9.9779766292066407e-01  9.9785973732338917e-01  9.9797183604113471e-01  9.9811805426259415e-01  9.9827854525604343e-01  9.9843236478112196e-01  9.9855916991951910e-01  9.9863918574838129e-01  9.9865132941525814e-01  9.9856963558191336e-01  9.9835811535678121e-01  9.9796399248055934e-01  9.9730903368738988e-01  9.9627856751335209e-01  9.9470793476043851e-01  9.9236680037431235e-01  9.8894346324391436e-01  9.8403488442808684e-01  9.7715502295880807e-01  9.6778628301282799e-01  9.5551898126076085e-01  9.4035416548294293e-01  9.2328809763931807e-01  9.0736019031260340e-01  8.9941875460300202e-01  8.9766223763767516e-01  9.0568554683661817e-01  9.2181102417444138e-01  9.3913048912487851e-01  9.5456122632972296e-01  9.6707981666588039e-01  9.7667101915629351e-01  9.8373922224670496e-01  9.8880202433888931e-01  9.9234813206043282e-01  9.9478420628592079e-01  9.9642550771624294e-01  9.9750528805893279e-01  9.9819014752664437e-01  9.9859552248958317e-01  9.9879912423530404e-01  9.9885192878859408e-01  9.9878707489724294e-01  9.9862722982651120e-01  9.9839085768008873e-01  9.9809748173138013e-01  9.9777156878592443e-01  9.9744425608558818e-01  9.9715207165514530e-01  9.9693234707482781e-01  9.9681620384460734e-01  9.9682132084575126e-01  9.9694727822108531e-01  9.9717546170367499e-01  9.9747354683679845e-01  9.9780259385308323e-01  9.9812392099188052e-01  9.9840347088680614e-01  9.9861270179612316e-01  9.9872623092264412e-01  9.9871701945040947e-01  9.9854982170839490e-01  9.9817320920827934e-01  9.9751003084243239e-01  9.9644590479757167e-01  9.9481543086819990e-01  9.9238650698496456e-01  9.8884488857652908e-01  9.8378478411292059e-01  9.7671822939351571e-01  9.6712826408781705e-01  9.5461103098025657e-01  9.3918213968907749e-01  9.2186507884552182e-01  9.0574209467771205e-01  8.9771984828359819e-01  8.9635770860923336e-01  9.0444182930079420e-01  9.2071463519753427e-01  9.3822428321091567e-01  9.5385560809521275e-01  9.6656430094028467e-01  9.7632374100352359e-01  9.8353354923052094e-01  9.8871049178631243e-01  9.9234435016631573e-01  9.9484339442341496e-01  9.9652415415924356e-01  9.9762026331384324e-01  9.9829747878176811e