<?xml version="1.0"?>
<VTKFile type="UnstructuredGrid"  version="0.1"  >
<UnstructuredGrid>
<Piece  NumberOfPoints="5101" NumberOfCells="10000">
<Points>
<DataArray  type="Float64"  NumberOfComponents="3"  format="ascii">0 0 0  0.2 0 0  0.4 0 0  0.6 0 0  0.8 0 0  1 0 0  1.2 0 0  1.4 0 0  1.6 0 0  1.8 0 0  2 0 0  2.2 0 0  2.4 0 0  2.6 0 0  2.8 0 0  3 0 0  3.2 0 0  3.4 0 0  3.6 0 0  3.8 0 0  4 0 0  4.2 0 0  4.4 0 0  4.6 0 0  4.8 0 0  5 0 0  5.2 0 0  5.4 0 0  5.6 0 0  5.8 0 0  6 0 0  6.2 0 0  6.4 0 0  6.6 0 0  6.8 0 0  7 0 0  7.2 0 0  7.4 0 0  7.6 0 0  7.8 0 0  8 0 0  8.199999999999999 0 0  8.4 0 0  8.6 0 0  8.800000000000001 0 0  9 0 0  9.199999999999999 0 0  9.4 0 0  9.6 0 0  9.800000000000001 0 0  10 0 0  0 0.2 0  0.2 0.2 0  0.4 0.2 0  0.6 0.2 0  0.8 0.2 0  1 0.2 0  1.2 0.2 0  1.4 0.2 0  1.6 0.2 0  1.8 0.2 0  2 0.2 0  2.2 0.2 0  2.4 0.2 0  2.6 0.2 0  2.8 0.2 0  3 0.2 0  3.2 0.2 0  3.4 0.2 0  3.6 0.2 0  3.8 0.2 0  4 0.2 0  4.2 0.2 0  4.4 0.2 0  4.6 0.2 0  4.8 0.2 0  5 0.2 0  5.2 0.2 0  5.4 0.2 0  5.6 0.2 0  5.8 0.2 0  6 0.2 0  6.2 0.2 0  6.4 0.2 0  6.6 0.2 0  6.8 0.2 0  7 0.2 0  7.2 0.2 0  7.4 0.2 0  7.6 0.2 0  7.8 0.2 0  8 0.2 0  8.199999999999999 0.2 0  8.4 0.2 0  8.6 0.2 0  8.800000000000001 0.2 0  9 0.2 0  9.199999999999999 0.2 0  9.4 0.2 0  9.6 0.2 0  9.800000000000001 0.2 0  10 0.2 0  0 0.4 0  0.2 0.4 0  0.4 0.4 0  0.6 0.4 0  0.8 0.4 0  1 0.4 0  1.2 0.4 0  1.4 0.4 0  1.6 0.4 0  1.8 0.4 0  2 0.4 0  2.2 0.4 0  2.4 0.4 0  2.6 0.4 0  2.8 0.4 0  3 0.4 0  3.2 0.4 0  3.4 0.4 0  3.6 0.4 0  3.8 0.4 0  4 0.4 0  4.2 0.4 0  4.4 0.4 0  4.6 0.4 0  4.8 0.4 0  5 0.4 0  5.2 0.4 0  5.4 0.4 0  5.6 0.4 0  5.8 0.4 0  6 0.4 0  6.2 0.4 0  6.4 0.4 0  6.6 0.4 0  6.8 0.4 0  7 0.4 0  7.2 0.4 0  7.4 0.4 0  7.6 0.4 0  7.8 0.4 0  8 0.4 0  8.199999999999999 0.4 0  8.4 0.4 0  8.6 0.4 0  8.800000000000001 0.4 0  9 0.4 0  9.199999999999999 0.4 0  9.4 0.4 0  9.6 0.4 0  9.800000000000001 0.4 0  10 0.4 0  0 0.6 0  0.2 0.6 0  0.4 0.6 0  0.6 0.6 0  0.8 0.6 0  1 0.6 0  1.2 0.6 0  1.4 0.6 0  1.6 0.6 0  1.8 0.6 0  2 0.6 0  2.2 0.6 0  2.4 0.6 0  2.6 0.6 0  2.8 0.6 0  3 0.6 0  3.2 0.6 0  3.4 0.6 0  3.6 0.6 0  3.8 0.6 0  4 0.6 0  4.2 0.6 0  4.4 0.6 0  4.6 0.6 0  4.8 0.6 0  5 0.6 0  5.2 0.6 0  5.4 0.6 0  5.6 0.6 0  5.8 0.6 0  6 0.6 0  6.2 0.6 0  6.4 0.6 0  6.6 0.6 0  6.8 0.6 0  7 0.6 0  7.2 0.6 0  7.4 0.6 0  7.6 0.6 0  7.8 0.6 0  8 0.6 0  8.199999999999999 0.6 0  8.4 0.6 0  8.6 0.6 0  8.800000000000001 0.6 0  9 0.6 0  9.199999999999999 0.6 0  9.4 0.6 0  9.6 0.6 0  9.800000000000001 0.6 0  10 0.6 0  0 0.8 0  0.2 0.8 0  0.4 0.8 0  0.6 0.8 0  0.8 0.8 0  1 0.8 0  1.2 0.8 0  1.4 0.8 0  1.6 0.8 0  1.8 0.8 0  2 0.8 0  2.2 0.8 0  2.4 0.8 0  2.6 0.8 0  2.8 0.8 0  3 0.8 0  3.2 0.8 0  3.4 0.8 0  3.6 0.8 0  3.8 0.8 0  4 0.8 0  4.2 0.8 0  4.4 0.8 0  4.6 0.8 0  4.8 0.8 0  5 0.8 0  5.2 0.8 0  5.4 0.8 0  5.6 0.8 0  5.8 0.8 0  6 0.8 0  6.2 0.8 0  6.4 0.8 0  6.6 0.8 0  6.8 0.8 0  7 0.8 0  7.2 0.8 0  7.4 0.8 0  7.6 0.8 0  7.8 0.8 0  8 0.8 0  8.199999999999999 0.8 0  8.4 0.8 0  8.6 0.8 0  8.800000000000001 0.8 0  9 0.8 0  9.199999999999999 0.8 0  9.4 0.8 0  9.6 0.8 0  9.800000000000001 0.8 0  10 0.8 0  0 1 0  0.2 1 0  0.4 1 0  0.6 1 0  0.8 1 0  1 1 0  1.2 1 0  1.4 1 0  1.6 1 0  1.8 1 0  2 1 0  2.2 1 0  2.4 1 0  2.6 1 0  2.8 1 0  3 1 0  3.2 1 0  3.4 1 0  3.6 1 0  3.8 1 0  4 1 0  4.2 1 0  4.4 1 0  4.6 1 0  4.8 1 0  5 1 0  5.2 1 0  5.4 1 0  5.6 1 0  5.8 1 0  6 1 0  6.2 1 0  6.4 1 0  6.6 1 0  6.8 1 0  7 1 0  7.2 1 0  7.4 1 0  7.6 1 0  7.8 1 0  8 1 0  8.199999999999999 1 0  8.4 1 0  8.6 1 0  8.800000000000001 1 0  9 1 0  9.199999999999999 1 0  9.4 1 0  9.6 1 0  9.800000000000001 1 0  10 1 0  0 1.2 0  0.2 1.2 0  0.4 1.2 0  0.6 1.2 0  0.8 1.2 0  1 1.2 0  1.2 1.2 0  1.4 1.2 0  1.6 1.2 0  1.8 1.2 0  2 1.2 0  2.2 1.2 0  2.4 1.2 0  2.6 1.2 0  2.8 1.2 0  3 1.2 0  3.2 1.2 0  3.4 1.2 0  3.6 1.2 0  3.8 1.2 0  4 1.2 0  4.2 1.2 0  4.4 1.2 0  4.6 1.2 0  4.8 1.2 0  5 1.2 0  5.2 1.2 0  5.4 1.2 0  5.6 1.2 0  5.8 1.2 0  6 1.2 0  6.2 1.2 0  6.4 1.2 0  6.6 1.2 0  6.8 1.2 0  7 1.2 0  7.2 1.2 0  7.4 1.2 0  7.6 1.2 0  7.8 1.2 0  8 1.2 0  8.199999999999999 1.2 0  8.4 1.2 0  8.6 1.2 0  8.800000000000001 1.2 0  9 1.2 0  9.199999999999999 1.2 0  9.4 1.2 0  9.6 1.2 0  9.800000000000001 1.2 0  10 1.2 0  0 1.4 0  0.2 1.4 0  0.4 1.4 0  0.6 1.4 0  0.8 1.4 0  1 1.4 0  1.2 1.4 0  1.4 1.4 0  1.6 1.4 0  1.8 1.4 0  2 1.4 0  2.2 1.4 0  2.4 1.4 0  2.6 1.4 0  2.8 1.4 0  3 1.4 0  3.2 1.4 0  3.4 1.4 0  3.6 1.4 0  3.8 1.4 0  4 1.4 0  4.2 1.4 0  4.4 1.4 0  4.6 1.4 0  4.8 1.4 0  5 1.4 0  5.2 1.4 0  5.4 1.4 0  5.6 1.4 0  5.8 1.4 0  6 1.4 0  6.2 1.4 0  6.4 1.4 0  6.6 1.4 0  6.8 1.4 0  7 1.4 0  7.2 1.4 0  7.4 1.4 0  7.6 1.4 0  7.8 1.4 0  8 1.4 0  8.199999999999999 1.4 0  8.4 1.4 0  8.6 1.4 0  8.800000000000001 1.4 0  9 1.4 0  9.199999999999999 1.4 0  9.4 1.4 0  9.6 1.4 0  9.800000000000001 1.4 0  10 1.4 0  0 1.6 0  0.2 1.6 0  0.4 1.6 0  0.6 1.6 0  0.8 1.6 0  1 1.6 0  1.2 1.6 0  1.4 1.6 0  1.6 1.6 0  1.8 1.6 0  2 1.6 0  2.2 1.6 0  2.4 1.6 0  2.6 1.6 0  2.8 1.6 0  3 1.6 0  3.2 1.6 0  3.4 1.6 0  3.6 1.6 0  3.8 1.6 0  4 1.6 0  4.2 1.6 0  4.4 1.6 0  4.6 1.6 0  4.8 1.6 0  5 1.6 0  5.2 1.6 0  5.4 1.6 0  5.6 1.6 0  5.8 1.6 0  6 1.6 0  6.2 1.6 0  6.4 1.6 0  6.6 1.6 0  6.8 1.6 0  7 1.6 0  7.2 1.6 0  7.4 1.6 0  7.6 1.6 0  7.8 1.6 0  8 1.6 0  8.199999999999999 1.6 0  8.4 1.6 0  8.6 1.6 0  8.800000000000001 1.6 0  9 1.6 0  9.199999999999999 1.6 0  9.4 1.6 0  9.6 1.6 0  9.800000000000001 1.6 0  10 1.6 0  0 1.8 0  0.2 1.8 0  0.4 1.8 0  0.6 1.8 0  0.8 1.8 0  1 1.8 0  1.2 1.8 0  1.4 1.8 0  1.6 1.8 0  1.8 1.8 0  2 1.8 0  2.2 1.8 0  2.4 1.8 0  2.6 1.8 0  2.8 1.8 0  3 1.8 0  3.2 1.8 0  3.4 1.8 0  3.6 1.8 0  3.8 1.8 0  4 1.8 0  4.2 1.8 0  4.4 1.8 0  4.6 1.8 0  4.8 1.8 0  5 1.8 0  5.2 1.8 0  5.4 1.8 0  5.6 1.8 0  5.8 1.8 0  6 1.8 0  6.2 1.8 0  6.4 1.8 0  6.6 1.8 0  6.8 1.8 0  7 1.8 0  7.2 1.8 0  7.4 1.8 0  7.6 1.8 0  7.8 1.8 0  8 1.8 0  8.199999999999999 1.8 0  8.4 1.8 0  8.6 1.8 0  8.800000000000001 1.8 0  9 1.8 0  9.199999999999999 1.8 0  9.4 1.8 0  9.6 1.8 0  9.800000000000001 1.8 0  10 1.8 0  0 2 0  0.2 2 0  0.4 2 0  0.6 2 0  0.8 2 0  1 2 0  1.2 2 0  1.4 2 0  1.6 2 0  1.8 2 0  2 2 0  2.2 2 0  2.4 2 0  2.6 2 0  2.8 2 0  3 2 0  3.2 2 0  3.4 2 0  3.6 2 0  3.8 2 0  4 2 0  4.2 2 0  4.4 2 0  4.6 2 0  4.8 2 0  5 2 0  5.2 2 0  5.4 2 0  5.6 2 0  5.8 2 0  6 2 0  6.2 2 0  6.4 2 0  6.6 2 0  6.8 2 0  7 2 0  7.2 2 0  7.4 2 0  7.6 2 0  7.8 2 0  8 2 0  8.199999999999999 2 0  8.4 2 0  8.6 2 0  8.800000000000001 2 0  9 2 0  9.199999999999999 2 0  9.4 2 0  9.6 2 0  9.800000000000001 2 0  10 2 0  0 2.2 0  0.2 2.2 0  0.4 2.2 0  0.6 2.2 0  0.8 2.2 0  1 2.2 0  1.2 2.2 0  1.4 2.2 0  1.6 2.2 0  1.8 2.2 0  2 2.2 0  2.2 2.2 0  2.4 2.2 0  2.6 2.2 0  2.8 2.2 0  3 2.2 0  3.2 2.2 0  3.4 2.2 0  3.6 2.2 0  3.8 2.2 0  4 2.2 0  4.2 2.2 0  4.4 2.2 0  4.6 2.2 0  4.8 2.2 0  5 2.2 0  5.2 2.2 0  5.4 2.2 0  5.6 2.2 0  5.8 2.2 0  6 2.2 0  6.2 2.2 0  6.4 2.2 0  6.6 2.2 0  6.8 2.2 0  7 2.2 0  7.2 2.2 0  7.4 2.2 0  7.6 2.2 0  7.8 2.2 0  8 2.2 0  8.199999999999999 2.2 0  8.4 2.2 0  8.6 2.2 0  8.800000000000001 2.2 0  9 2.2 0  9.199999999999999 2.2 0  9.4 2.2 0  9.6 2.2 0  9.800000000000001 2.2 0  10 2.2 0  0 2.4 0  0.2 2.4 0  0.4 2.4 0  0.6 2.4 0  0.8 2.4 0  1 2.4 0  1.2 2.4 0  1.4 2.4 0  1.6 2.4 0  1.8 2.4 0  2 2.4 0  2.2 2.4 0  2.4 2.4 0  2.6 2.4 0  2.8 2.4 0  3 2.4 0  3.2 2.4 0  3.4 2.4 0  3.6 2.4 0  3.8 2.4 0  4 2.4 0  4.2 2.4 0  4.4 2.4 0  4.6 2.4 0  4.8 2.4 0  5 2.4 0  5.2 2.4 0  5.4 2.4 0  5.6 2.4 0  5.8 2.4 0  6 2.4 0  6.2 2.4 0  6.4 2.4 0  6.6 2.4 0  6.8 2.4 0  7 2.4 0  7.2 2.4 0  7.4 2.4 0  7.6 2.4 0  7.8 2.4 0  8 2.4 0  8.199999999999999 2.4 0  8.4 2.4 0  8.6 2.4 0  8.800000000000001 2.4 0  9 2.4 0  9.199999999999999 2.4 0  9.4 2.4 0  9.6 2.4 0  9.800000000000001 2.4 0  10 2.4 0  0 2.6 0  0.2 2.6 0  0.4 2.6 0  0.6 2.6 0  0.8 2.6 0  1 2.6 0  1.2 2.6 0  1.4 2.6 0  1.6 2.6 0  1.8 2.6 0  2 2.6 0  2.2 2.6 0  2.4 2.6 0  2.6 2.6 0  2.8 2.6 0  3 2.6 0  3.2 2.6 0  3.4 2.6 0  3.6 2.6 0  3.8 2.6 0  4 2.6 0  4.2 2.6 0  4.4 2.6 0  4.6 2.6 0  4.8 2.6 0  5 2.6 0  5.2 2.6 0  5.4 2.6 0  5.6 2.6 0  5.8 2.6 0  6 2.6 0  6.2 2.6 0  6.4 2.6 0  6.6 2.6 0  6.8 2.6 0  7 2.6 0  7.2 2.6 0  7.4 2.6 0  7.6 2.6 0  7.8 2.6 0  8 2.6 0  8.199999999999999 2.6 0  8.4 2.6 0  8.6 2.6 0  8.800000000000001 2.6 0  9 2.6 0  9.199999999999999 2.6 0  9.4 2.6 0  9.6 2.6 0  9.800000000000001 2.6 0  10 2.6 0  0 2.8 0  0.2 2.8 0  0.4 2.8 0  0.6 2.8 0  0.8 2.8 0  1 2.8 0  1.2 2.8 0  1.4 2.8 0  1.6 2.8 0  1.8 2.8 0  2 2.8 0  2.2 2.8 0  2.4 2.8 0  2.6 2.8 0  2.8 2.8 0  3 2.8 0  3.2 2.8 0  3.4 2.8 0  3.6 2.8 0  3.8 2.8 0  4 2.8 0  4.2 2.8 0  4.4 2.8 0  4.6 2.8 0  4.8 2.8 0  5 2.8 0  5.2 2.8 0  5.4 2.8 0  5.6 2.8 0  5.8 2.8 0  6 2.8 0  6.2 2.8 0  6.4 2.8 0  6.6 2.8 0  6.8 2.8 0  7 2.8 0  7.2 2.8 0  7.4 2.8 0  7.6 2.8 0  7.8 2.8 0  8 2.8 0  8.199999999999999 2.8 0  8.4 2.8 0  8.6 2.8 0  8.800000000000001 2.8 0  9 2.8 0  9.199999999999999 2.8 0  9.4 2.8 0  9.6 2.8 0  9.800000000000001 2.8 0  10 2.8 0  0 3 0  0.2 3 0  0.4 3 0  0.6 3 0  0.8 3 0  1 3 0  1.2 3 0  1.4 3 0  1.6 3 0  1.8 3 0  2 3 0  2.2 3 0  2.4 3 0  2.6 3 0  2.8 3 0  3 3 0  3.2 3 0  3.4 3 0  3.6 3 0  3.8 3 0  4 3 0  4.2 3 0  4.4 3 0  4.6 3 0  4.8 3 0  5 3 0  5.2 3 0  5.4 3 0  5.6 3 0  5.8 3 0  6 3 0  6.2 3 0  6.4 3 0  6.6 3 0  6.8 3 0  7 3 0  7.2 3 0  7.4 3 0  7.6 3 0  7.8 3 0  8 3 0  8.199999999999999 3 0  8.4 3 0  8.6 3 0  8.800000000000001 3 0  9 3 0  9.199999999999999 3 0  9.4 3 0  9.6 3 0  9.800000000000001 3 0  10 3 0  0 3.2 0  0.2 3.2 0  0.4 3.2 0  0.6 3.2 0  0.8 3.2 0  1 3.2 0  1.2 3.2 0  1.4 3.2 0  1.6 3.2 0  1.8 3.2 0  2 3.2 0  2.2 3.2 0  2.4 3.2 0  2.6 3.2 0  2.8 3.2 0  3 3.2 0  3.2 3.2 0  3.4 3.2 0  3.6 3.2 0  3.8 3.2 0  4 3.2 0  4.2 3.2 0  4.4 3.2 0  4.6 3.2 0  4.8 3.2 0  5 3.2 0  5.2 3.2 0  5.4 3.2 0  5.6 3.2 0  5.8 3.2 0  6 3.2 0  6.2 3.2 0  6.4 3.2 0  6.6 3.2 0  6.8 3.2 0  7 3.2 0  7.2 3.2 0  7.4 3.2 0  7.6 3.2 0  7.8 3.2 0  8 3.2 0  8.199999999999999 3.2 0  8.4 3.2 0  8.6 3.2 0  8.800000000000001 3.2 0  9 3.2 0  9.199999999999999 3.2 0  9.4 3.2 0  9.6 3.2 0  9.800000000000001 3.2 0  10 3.2 0  0 3.4 0  0.2 3.4 0  0.4 3.4 0  0.6 3.4 0  0.8 3.4 0  1 
[...]
<PointData  Scalars="f_14"> 
<DataArray  type="Float64"  Name="f_14"  format="ascii">9.8450005256076678e-01  9.8336797394468933e-01  9.8054110846142783e-01  9.7678500788307920e-01  9.7267112456342708e-01  9.6857787685573882e-01  9.6473379652784130e-01  9.6126094249475802e-01  9.5820985647644652e-01  9.5558545867181377e-01  9.5336544128207346e-01  9.5151286939309376e-01  9.4998450655854538e-01  9.4873607609688271e-01  9.4772538637170389e-01  9.4691401189947855e-01  9.4626803371040347e-01  9.4575819660588212e-01  9.4535973077656899e-01  9.4505200383698484e-01  9.4481811058850051e-01  9.4464446652109846e-01  9.4452044290267612e-01  9.4443806285117105e-01  9.4439176637846334e-01  9.4437824601141640e-01  9.4439635169995728e-01  9.4444706312745175e-01  9.4453352827919534e-01  9.4466116835062852e-01  9.4483784996443387e-01  9.4507412533799884e-01  9.4538353848645751e-01  9.4578298951713569e-01  9.4629313797893100e-01  9.4693880800869468e-01  9.4774932998249528e-01  9.4875871209919149e-01  9.5000547650945766e-01  9.5153191306146290e-01  9.5338239338802444e-01  9.5560024210813621e-01  9.5822247334826482e-01  9.6127146425126353e-01  9.6474235432857947e-01  9.6858465315857634e-01  9.7267634678059001e-01  9.7678894486576795e-01  9.8054407022139445e-01  9.8337031437980738e-01  9.8450217487285285e-01  9.8336836207349432e-01  9.8291440048360235e-01  9.8109033106854660e-01  9.7821539235367705e-01  9.7480361960832529e-01  9.7125318001202676e-01  9.6782476585660171e-01  9.6466978453642138e-01  9.6186224518123831e-01  9.5942502272416208e-01  9.5734932372326020e-01  9.5560835005361744e-01  9.5416648597172737e-01  9.5298521138245496e-01  9.5202670734987549e-01  9.5125588781328718e-01  9.5064139597311481e-01  9.5015594933291925e-01  9.4977629984769807e-01  9.4948298869394798e-01  9.4926001248010428e-01  9.4909447363989863e-01  9.4897625764326554e-01  9.4889775982505931e-01  9.4885367222521066e-01  9.4884083370434402e-01  9.4885814312506489e-01  9.4890653432246186e-01  9.4898901191536378e-01  9.4911074784291072e-01  9.4927923898791056e-01  9.4950452545190245e-01  9.4979946591543485e-01  9.5018005974359065e-01  9.5066579340419233e-01  9.5127996916156188e-01  9.5204994402440102e-01  9.5300716286656662e-01  9.5418680686841095e-01  9.5562679135446127e-01  9.5736572939895570e-01  9.5943932292237555e-01  9.6187444735689920e-01  9.6467996376541187e-01  9.6783305543817311e-01  9.7125976328359986e-01  9.7480872368447202e-01  9.7821928424365423e-01  9.8109331620922624e-01  9.8291682156963656e-01  9.8337059224245971e-01  9.8054268331907912e-01  9.8109149827820363e-01  9.8114777243989104e-01  9.8012289226153404e-01  9.7826558909023131e-01  9.7594959936185333e-01  9.7347998213026510e-01  9.7106365740843770e-01  9.6882415784335252e-01  9.6682421902182558e-01  9.6508586771811156e-01  9.6360576179705848e-01  9.6236605552615306e-01  9.6134170233330185e-01  9.6050513226959733e-01  9.5982908672674638e-01  9.5928820974293938e-01  9.5885983288847154e-01  9.5852426127747903e-01  9.5826477056404979e-01  9.5806745367689516e-01  9.5792100576278227e-01  9.5781650121117468e-01  9.5774719355387106e-01  9.5770835425480605e-01  9.5769715750406759e-01  9.5771261329111768e-01  9.5775554886381187e-01  9.5782863805699503e-01  9.5793647790921932e-01  9.5808571152228683e-01  9.5828519423715819e-01  9.5854619572226218e-01  9.5888262204119068e-01  9.5931122731073626e-01  9.5985176171107112e-01  9.6052696812733351e-01  9.6136228942066493e-01  9.6238507713335331e-01  9.6362299459431189e-01  9.6510117776860904e-01  9.6683755467708843e-01  9.6883554084430257e-01  9.7107317340466393e-01  9.7348777162960598e-01  9.7595584984488815e-01  9.7827052864447195e-01  9.8012678433190337e-01  9.8115091037625690e-01  9.8109419393705688e-01  9.8054523884905220e-01  9.7678871118674604e-01  9.7821862963594708e-01  9.8012488059491154e-01  9.8110324792177483e-01  9.8103535229814043e-01  9.8019393778392971e-01  9.7889515411960148e-01  9.7739265422458554e-01  9.7586118829548774e-01  9.7440856798288267e-01  9.7309336290132520e-01  9.7194080431748309e-01  9.7095503566443975e-01  9.7012783205473285e-01  9.6944448001417560e-01  9.6888756058432890e-01  9.6843926473524511e-01  9.6808272330545309e-01  9.6780270118220080e-01  9.6758589967742992e-01  9.6742103180234273e-01  9.6729877808080267e-01  9.6721169069865243e-01  9.6715408675806602e-01  9.6712195366973075e-01  9.6711287858091077e-01  9.6712600717669728e-01  9.6716203364556530e-01  9.6722322180229325e-01  9.6731345619466069e-01  9.6743832040135280e-01  9.6760519650415622e-01  9.6782337355833192e-01  9.6810414215744034e-01  9.6846083479752287e-01  9.6890874495281465e-01  9.6946481803708784e-01  9.7014695034351406e-01  9.7097265268775046e-01  9.7195672954597256e-01  9.7310749177815370e-01  9.7442087411328804e-01  9.7587171420467000e-01  9.7740150185617303e-01  9.7890247595155389e-01  9.8019992900040886e-01  9.8104024377335142e-01  9.8110729861804880e-01  9.8012836593467156e-01  9.7822181861322322e-01  9.7679181845921104e-01  9.7267818330030309e-01  9.7481009409843944e-01  9.7827059258981275e-01  9.8103819301982664e-01  9.8265122037947661e-01  9.8324619768525034e-01  9.8311633970327605e-01  9.8254095205172587e-01  9.8173516046440756e-01  9.8084699806089659e-01  9.7996978750930241e-01  9.7915696199581093e-01  9.7843486325927154e-01  9.7781248258078535e-01  9.7728837136733437e-01  9.7685530803389309e-01  9.7650332076745350e-01  9.7622156530500992e-01  9.7599943669019340e-01  9.7582718757117071e-01  9.7569624162632107e-01  9.7559932834470375e-01  9.7553052086981029e-01  9.7548522780212665e-01  9.7546016916227807e-01  9.7545335329725602e-01  9.7546406317627521e-01  9.7549285555976872e-01  9.7554157352848436e-01  9.7561337057714581e-01  9.7571274168800803e-01  9.7584555220786806e-01  9.7601904747573864e-01  9.7624181318909564e-01  9.7652363618393390e-01  9.7687518473921042e-01  9.7730738309302456e-01  9.7783029245265551e-01  9.7845122665280615e-01  9.7917172400264818e-01  9.7998287646702176e-01  9.8085841666421492e-01  9.8174497586153431e-01  9.8254928606102787e-01  9.8312335986009358e-01  9.8325210919021511e-01  9.8265625802539902e-01  9.8104261057174713e-01  9.7827464474081038e-01  9.7481400230571069e-01  9.7268207027317477e-01  9.6858993486170353e-01  9.7126445474454215e-01  9.7595898814215232e-01  9.8020073820167319e-01  9.8324988423064197e-01  9.8510978079775979e-01  9.8603327501890836e-01  9.8630725300545108e-01  9.8617387233781217e-01  9.8581267505600889e-01  9.8534631617251078e-01  9.8485309095112128e-01  9.8437945118484649e-01  9.8395025768615896e-01  9.8357642311416937e-01  9.8326029109202673e-01  9.8299926766715162e-01  9.8278818922519939e-01  9.8262081707978288e-01  9.8249075000764696e-01  9.8239196179759614e-01  9.8231910565844316e-01  9.8226767943501669e-01  9.8223411167609864e-01  9.8221580532727060e-01  9.8221116033995193e-01  9.8221958651968500e-01  9.8224151165945162e-01  9.8227838589151539e-01  9.8233267986953832e-01  9.8240787051657763e-01  9.8250840221998403e-01  9.8263960190905597e-01  9.8280751149121381e-01  9.8301857827942452e-01  9.8327911040940363e-01  9.8359435643988014e-01  9.8396700303333129e-01  9.8439480022051862e-01  9.8486692454367153e-01  9.8535859621707556e-01  9.8582343425981889e-01  9.8618320345033861e-01  9.8631529860113487e-01  9.8604021836697264e-01  9.8511583750303855e-01  9.8325529303715242e-01  9.8020574740975874e-01  9.7596383141431120e-01  9.7126930646045639e-01  9.6859482571683775e-01  9.6475303518916034e-01  9.6784292036823549e-01  9.7349559290436694e-01  9.7890743331958352e-01  9.8312488008243626e-01  9.8603776591938874e-01  9.8785525132005358e-01  9.8886106674006047e-01  9.8931356192471820e-01  9.8941514408025677e-01  9.8931151296737063e-01  9.8910141153816866e-01  9.8884832289749036e-01  9.8859081060842580e-01  9.8835059780505774e-01  9.8813846198308464e-01  9.8795834676909400e-01  9.8781013586693178e-01  9.8769147457000417e-01  9.8759893858197834e-01  9.8752876933707190e-01  9.8747732934671728e-01  9.8744138131148429e-01  9.8741825866379362e-01  9.8740596995466523e-01  9.8740326235159359e-01  9.8740965817948256e-01  9.8742547101197853e-01  9.8745180268941013e-01  9.8749051834159030e-01  9.8754419160471085e-01  9.8761600523678361e-01  9.8770958155706967e-01  9.8782870055806704e-01  9.8797683876621356e-01  9.8815642616647392e-01  9.8836766882702976e-01  9.8860671911268172e-01  9.8886289459782450e-01  9.8911456084101035e-01  9.8932323305942305e-01  9.8942549535729685e-01  9.8932266035634842e-01  9.8886907327371032e-01  9.8786236270028660e-01  9.8604420623494837e-01  9.8313089077047155e-01  9.7891325706623755e-01  9.7350144380908588e-01  9.6784892872662565e-01  9.6475914240556271e-01  9.6129019205632416e-01  9.6469752512884133e-01  9.7108790381572108e-01  9.7741244637229419e-01  9.8255596146373458e-01  9.8631741641763648e-01  9.8886630223024807e-01  9.9047851118626140e-01  9.9142134667953663e-01  9.9191314932113928e-01  9.9211698688372252e-01  9.9214770850659628e-01  9.9208260429233597e-01  9.9197156697791267e-01  9.9184537909160886e-01  9.9172195069331015e-01  9.9161078758946553e-01  9.9151608437976890e-01  9.9143881209961049e-01  9.9137810048420116e-01  9.9133214037863182e-01  9.9129876754134749e-01  9.9127583873465663e-01  9.9126147373063767e-01  9.9125421036942618e-01  9.9125310155178803e-01  9.9125777071307364e-01  9.9126843392313779e-01  9.9128589060162087e-01  9.9131147945972464e-01  9.9134699028786444e-01  9.9139451413244195e-01  9.9145620253901956e-01  9.9153388883433169e-01  9.9162849846052969e-01  9.9173913851436224e-01  9.9186170648672478e-01  9.9198679388749567e-01  9.9209658571312964e-01  9.9216038663597172e-01  9.9212837983073066e-01  9.9192333848076364e-01  9.9143046451664252e-01  9.9048673057417802e-01  9.8887382760540976e-01  9.8632447572649029e-01  9.8256279597867990e-01  9.7741929273466233e-01  9.7109495899649800e-01  9.6470488024383183e-01  9.6129770394583203e-01  9.5825269906155519e-01  9.6190300647876814e-01  9.6886013024383366e-01  9.7589114327824211e-01  9.8175880781094771e-01  9.8619138294322473e-01  9.8932521104221771e-01  9.9142726410359738e-01  9.9276951010121772e-01  9.9358123558943012e-01  9.9403833094388461e-01  9.9426801411317545e-01  9.9435845922889587e-01  9.9436865592287549e-01  9.9433675740762284e-01  9.9428653137255329e-01  9.9423208246349715e-01  9.9418118818972645e-01  9.9413759716907957e-01  9.9410258454564537e-01  9.9407599177620087e-01  9.9405691612680924e-01  9.9404416533480566e-01  9.9403655545006531e-01  9.9403310311767845e-01  9.9403314504367513e-01  9.9403640460109755e-01  9.9404301627941771e-01  9.9405351119875418e-01  9.9406875988524601e-01  9.9408986086212203e-01  9.9411795419549653e-01  9.9415392639162681e-01  9.9419795487256168e-01  9.9424881410029342e-01  9.9430282862231778e-01  9.9435230890257631e-01  9.9438324412292578e-01  9.9437195836620806e-01  9.9428038215730330e-01  9.9404959795198988e-01  9.9359149080137565e-01  9.9277888976156980e-01  9.9143594129198509e-01  9.8933338774568547e-01  9.8619928307249927e-01  9.8176666759337394e-01  9.7589919220019572e-01  9.6886855125184224e-01  9.6191185832636505e-01  9.5826176191426937e-01  9.5564632352877299e-01  9.5948306121496818e-01  9.6687577544905823e-01  9.7445204123646145e-01  9.8088209725174902e-01  9.8583979620844076e-01  9.8943492064188476e-01  9.9192615019426655e-01  9.9358777118299146e-01  9.9465661907322811e-01  9.9531798858660880e-01  9.9570847023126763e-01  9.9592466924783984e-01  9.9603273536846415e-01  9.9607669195486970e-01  9.9608501329674404e-01  9.9607552589026127e-01  9.9605892774910243e-01  9.9604125269722144e-01  9.9602556601533287e-01  9.9601311650461044e-01  9.9600411083828611e-01  9.9599822741723576e-01  9.9599495056405829e-01  9.9599378045131071e-01  9.9599435693409633e-01  9.9599652326032018e-01  9.9600034559738504e-01  9.9600609451502231e-01  9.9601418421643551e-01  9.9602505437346855e-01  9.9603896775734002e-01  9.9605568341725637e-01  9.9607394767193347e-01  9.9609072048516867e-01  9.9610001971589579e-01  9.9609121833184655e-01  9.9604657124807328e-01  9.9593768728288212e-01  9.9572062078459667e-01  9.9532928975902724e-01  9.9466714490584396e-01  9.9359764044963950e-01  9.9193551740674779e-01  9.8944396964950243e-01  9.8584873494554992e-01  9.8089114947418143e-01  9.7446142716396456e-01  9.6688566777311824e-01  9.5949349572253073e-01  9.5565701639831657e-01  9.5344969140804592e-01  9.5742980272079992e-01  9.6515771622327795e-01  9.7315449611110949e-01  9.8001987814023606e-01  9.8538598199811767e-01  9.8934175058043838e-01  9.9213880655899089e-01  9.9405253625088863e-01  9.9532505189083365e-01  9.9614855210205289e-01  9.9666668265479219e-01  9.9698250402251709e-01  9.9716771627030709e-01  9.9727093513513021e-01  9.9732434379736612e-01  9.9734872286935916e-01  9.9735711245338110e-01  9.9735741245315668e-01  9.9735419689854043e-01  9.9734996132578291e-01  9.9734596508771811e-01  9.9734278356811978e-01  9.9734065180966369e-01  9.9733965995523055e-01  9.9733984833250744e-01  9.9734124077185216e-01  9.9734384405287502e-01  9.9734762673386956e-01  9.9735247266715532e-01  9.9735808605596787e-01  9.9736380863320184e-01  9.9736829571041263e-01  9.9736898354816261e-01  9.9736126069007114e-01  9.9733722553408610e-01  9.9728386875009678e-01  9.9718046416453920e-01  9.9699489575355249e-01  9.9667861753009301e-01  9.9615999439576397e-01  9.9533602220186601e-01  9.9406310232413064e-01  9.9214907597189728e-01  9.8935186617544857e-01  9.8539611871939292e-01  9.8003023667466416e-01  9.7316528401387714e-01  9.6516910054962457e-01  9.5744180922653632e-01  9.5346199195069414e-01  9.5162687712113336e-01  9.5571741389598441e-01  9.6370353264647102e-01  9.7202459651568418e-01  9.7922638045635790e-01  9.8490897802383170e-01  9.8914513522604497e-01  9.9218072079747532e-01  9.9429160088422153e-01  9.9572362805511105e-01  9.9667407972782474e-01  9.9729188357784859e-01  9.9768498648269521e-01  9.9792931987108824e-01  9.9807701542602234e-01  9.9816310461736435e-01  9.9821064941191362e-01  9.9823452620795639e-01  9.9824415057142946e-01  9.9824540569958586e-01  9.9824198209076154e-01  9.9823627865066933e-01  9.9822997032711713e-01  9.9822431991501792e-01  9.9822030115048821e-01  9.9821860004143137e-01  9.9821956102672671e-01  9.9822313387644945e-01  9.9822885183563748e-01  9.9823583551784711e-01  9.9824278081673556e-01  9.9824786268030019e-01  9.9824847344125389e-01  9.9824070944570165e-01  9.9821851255580374e-01  9.9817235355087186e-01  9.9808730734651785e-01  9.9794031796224814e-01  9.9769639747836181e-01  9.9730347766949667e-01  9.9668569635287707e-01  9.9573517288669511e-01  9.9430303931917718e-01  9.9219207201536086e-01  9.8915646885813080e-01  9.8492041265195351e-01  9.7923807919880856e-01  9.7203674928709582e-01  9.6371630659153318e-01  9.5573084235640937e-01  9.5164061684892087e-01  9.5013571402745478e-01  9.5431131958766102e-01  9.6249635988798121e-01  9.7106740210124154e-01  9.7852880264547237e-01  9.8445603941815329e-01  9.8890930937240751e-01  9.9212987723852097e-01  9.9439376095470111e-01  9.9594947719939930e-01  9.9699802489848632e-01  9.9769224080312346e-01  9.9814369906376854e-01  9.9843146467068822e-01  9.9861025460381470e-01  9.9871717557405604e-01  9.9877694681772122e-01  9.9880580706958133e-01  9.9881437750275470e-01  9.9880972754485409e-01  9.9879683000046804e-01  9.9877952913420331e-01  9.9876110013078145e-01  9.9874446186642618e-01  9.9873211810808404e-01  9.9872593267897192e-01  9.9872686796212296e-01  9.9873480854218277e-01  9.9874854210653718e-01  9.9876589045772690e-01  9.9878390467956490e-01  9.9879898945868817e-01  9.9880681315127073e-01  9.9880188031290162e-01  9.9877666694836598e-01  9.9872022269013305e-01  9.9861611801667638e-01  9.9843956322938132e-01  9.9815346833599006e-01  9.9770318528853019e-01  9.9700974160098144e-01  9.9596166020339316e-01  9.9440619653092122e-01  9.9214243691396053e-01  9.8892194530032396e-01  9.8446878255518644e-01  9.7854175931222853e-01  9.7108073769074610e-01  9.6251024872434487e-01  9.5432582612367534e-01  9.5015052157632840e-01  9.4893303497741732e-01  9.5317407978571822e-01  9.6151217241625786e-01  9.7027564630567475e-01  9.7793703746249461e-01  9.8405287717489520e-01  9.8867363467071689e-01  9.9203690340495587e-01  9.9441865287519660e-01  9.9606926708937527e-01  9.9719241840911788e-01  9.9794375293303983e-01  9.9843742087662213e-01  9.9875465782282147e-01  9.9895190060693007e-01  9.9906756431939914e-01  9.9912736618529685e-01  9.9914838359626390e-01  9.9914210730579467e-01  9.9911671676623781e-01  9.9907872664727315e-01  9.9903407172138925e-01  9.9898864377097674e-01  9.9894829490169701e-01  9.9891838535691524e-01  9.9890305775537613e-01  9.9890450766242689e-01  9.9892252775486146e-01  9.9895449845221973e-01  9.9899581392671921e-01  9.9904055090880928e-01  9.9908208849291491e-01  9.9911339772915453e-01  9.9912680572286505e-01  9.9911313530877099e-01  9.9906017444476569e-01  9.9895041965192577e-01  9.9875797819442436e-01  9.9844443811672623e-01  9.9795347217732999e-01  9.9720400335882620e-01  9.9608205109075254e-01  9.9443213028185073e-01  9.9205071498916797e-01  9.8868755549327003e-01  9.8406680969991145e-01  9.7795100637852905e-01  9.7028978333503491e-01  9.6152666772336859e-01  9.5318905959708156e-01  9.4894826644282504e-01  9.4797777000243677e-01  9.5226896838295227e-01  9.6072443654431017e-01  9.6963559326205440e-01  9.7745056162692479e-01  9.8371128140354780e-01  9.8846065957197349e-01  9.9193333675149931e-01  9.9440507705348413e-01  9.9612749854933713e-01  9.9730609106067247e-01  9.9809837568668469e-01  9.9862013570953168e-01  9.9895385021997696e-01  9.9915676859095914e-01  9.9926773106438271e-01  9.9931261804621485e-01  9.9930862126453845e-01  9.9926759933447229e-01  9.9919872368350438e-01  9.9911050102554055e-01  9.9901212514186033e-01  9.9891402160000242e-01  9.9882746836362346e-01  9.9876334137864731e-01  9.9873031152526037e-01  9.9873307662706245e-01  9.9877127553021550e-01  9.9883950388680587e-01  9.9892841046256442e-01  9.9902642040248457e-01  9.9912142256808489e-01  9.9920183500177928e-01  9.9925672039869462e-01  9.9927488980914803e-01  9.9924308359282010e-01  9.9914332460739408e-01  9.9894944284014353e-01  9.9862264442351556e-01  9.9810591477157862e-01  9.9731708711841094e-01  9.9614069830054830e-01  9.9441952024730262e-01  9.9194831904651315e-01  9.8847570029617149e-01  9.8372610232844881e-01  9.7746507455318865e-01  9.6964988445957268e-01  9.6073872237122437e-01  9.5228347578423955e-01  9.4799242614805179e-01  9.4723259228171097e-01  9.5156197073288928e-01  9.6010691304369289e-01  9.6913079103492017e-01  9.7706307477868948e-01  9.8343447384273253e-01  9.8828198782669818e-01  9.9183783467314168e-01  9.9437741633383625e-01  9.9615303928293564e-01  9.9737125897450007e-01  9.9819060998525400e-01  9.9872757438269710e-01  9.9906486834880825e-01  9.9925946125635712e-01  9.9934943471704740e-01  9.9935958921921131e-01  9.9930603048964339e-01  9.9920003149589542e-01  9.9905136913174808e-01  9.9887112798905542e-01  9.9867370466739269e-01  9.9847754145507006e-01  9.9830412649742128e-01  9.9817515607635299e-01  9.9810843600167976e-01  9.9811380423636498e-01  9.9819061296607881e-01  9.9832780566438184e-01  9.9850654078983547e-01  9.9870425675320040e-01  9.9889862616936664e-01  9.9907014360436985e-01  9.9920279839563797e-01  9.9928294058538192e-01  9.9929677774993841e-01  9.9922692952039005e-01  9.9904825516905793e-01  9.9872291967460625e-01  9.9819449554590889e-01  9.9738090101575794e-01  9.9616626292338684e-01  9.9439257696746985e-01  9.9185372889446966e-01  9.8829777793826945e-01  9.8344963598122148e-01  9.7707736962269054e-01  9.6914424470248917e-01  9.6011978015209010e-01  9.5157462713416840e-01  9.4724522353800988e-01  9.4666461577848482e-01  9.5102273840646112e-01  9.5963520900796251e-01  9.6874434983497604e-01  9.7676548685422526e-01  9.8322070504397541e-01  9.8814235608265877e-01  9.9176060697061375e-01  9.9435031790323247e-01  9.9616397313900862e-01  9.9740847670360400e-01  9.9824250446014762e-01  9.9878220782195126e-01  9.9910931571792883e