<?xml version="1.0"?>
<VTKFile type="UnstructuredGrid"  version="0.1"  >
<UnstructuredGrid>
<Piece  NumberOfPoints="5101" NumberOfCells="10000">
<Points>
<DataArray  type="Float64"  NumberOfComponents="3"  format="ascii">0 0 0  0.2 0 0  0.4 0 0  0.6 0 0  0.8 0 0  1 0 0  1.2 0 0  1.4 0 0  1.6 0 0  1.8 0 0  2 0 0  2.2 0 0  2.4 0 0  2.6 0 0  2.8 0 0  3 0 0  3.2 0 0  3.4 0 0  3.6 0 0  3.8 0 0  4 0 0  4.2 0 0  4.4 0 0  4.6 0 0  4.8 0 0  5 0 0  5.2 0 0  5.4 0 0  5.6 0 0  5.8 0 0  6 0 0  6.2 0 0  6.4 0 0  6.6 0 0  6.8 0 0  7 0 0  7.2 0 0  7.4 0 0  7.6 0 0  7.8 0 0  8 0 0  8.199999999999999 0 0  8.4 0 0  8.6 0 0  8.800000000000001 0 0  9 0 0  9.199999999999999 0 0  9.4 0 0  9.6 0 0  9.800000000000001 0 0  10 0 0  0 0.2 0  0.2 0.2 0  0.4 0.2 0  0.6 0.2 0  0.8 0.2 0  1 0.2 0  1.2 0.2 0  1.4 0.2 0  1.6 0.2 0  1.8 0.2 0  2 0.2 0  2.2 0.2 0  2.4 0.2 0  2.6 0.2 0  2.8 0.2 0  3 0.2 0  3.2 0.2 0  3.4 0.2 0  3.6 0.2 0  3.8 0.2 0  4 0.2 0  4.2 0.2 0  4.4 0.2 0  4.6 0.2 0  4.8 0.2 0  5 0.2 0  5.2 0.2 0  5.4 0.2 0  5.6 0.2 0  5.8 0.2 0  6 0.2 0  6.2 0.2 0  6.4 0.2 0  6.6 0.2 0  6.8 0.2 0  7 0.2 0  7.2 0.2 0  7.4 0.2 0  7.6 0.2 0  7.8 0.2 0  8 0.2 0  8.199999999999999 0.2 0  8.4 0.2 0  8.6 0.2 0  8.800000000000001 0.2 0  9 0.2 0  9.199999999999999 0.2 0  9.4 0.2 0  9.6 0.2 0  9.800000000000001 0.2 0  10 0.2 0  0 0.4 0  0.2 0.4 0  0.4 0.4 0  0.6 0.4 0  0.8 0.4 0  1 0.4 0  1.2 0.4 0  1.4 0.4 0  1.6 0.4 0  1.8 0.4 0  2 0.4 0  2.2 0.4 0  2.4 0.4 0  2.6 0.4 0  2.8 0.4 0  3 0.4 0  3.2 0.4 0  3.4 0.4 0  3.6 0.4 0  3.8 0.4 0  4 0.4 0  4.2 0.4 0  4.4 0.4 0  4.6 0.4 0  4.8 0.4 0  5 0.4 0  5.2 0.4 0  5.4 0.4 0  5.6 0.4 0  5.8 0.4 0  6 0.4 0  6.2 0.4 0  6.4 0.4 0  6.6 0.4 0  6.8 0.4 0  7 0.4 0  7.2 0.4 0  7.4 0.4 0  7.6 0.4 0  7.8 0.4 0  8 0.4 0  8.199999999999999 0.4 0  8.4 0.4 0  8.6 0.4 0  8.800000000000001 0.4 0  9 0.4 0  9.199999999999999 0.4 0  9.4 0.4 0  9.6 0.4 0  9.800000000000001 0.4 0  10 0.4 0  0 0.6 0  0.2 0.6 0  0.4 0.6 0  0.6 0.6 0  0.8 0.6 0  1 0.6 0  1.2 0.6 0  1.4 0.6 0  1.6 0.6 0  1.8 0.6 0  2 0.6 0  2.2 0.6 0  2.4 0.6 0  2.6 0.6 0  2.8 0.6 0  3 0.6 0  3.2 0.6 0  3.4 0.6 0  3.6 0.6 0  3.8 0.6 0  4 0.6 0  4.2 0.6 0  4.4 0.6 0  4.6 0.6 0  4.8 0.6 0  5 0.6 0  5.2 0.6 0  5.4 0.6 0  5.6 0.6 0  5.8 0.6 0  6 0.6 0  6.2 0.6 0  6.4 0.6 0  6.6 0.6 0  6.8 0.6 0  7 0.6 0  7.2 0.6 0  7.4 0.6 0  7.6 0.6 0  7.8 0.6 0  8 0.6 0  8.199999999999999 0.6 0  8.4 0.6 0  8.6 0.6 0  8.800000000000001 0.6 0  9 0.6 0  9.199999999999999 0.6 0  9.4 0.6 0  9.6 0.6 0  9.800000000000001 0.6 0  10 0.6 0  0 0.8 0  0.2 0.8 0  0.4 0.8 0  0.6 0.8 0  0.8 0.8 0  1 0.8 0  1.2 0.8 0  1.4 0.8 0  1.6 0.8 0  1.8 0.8 0  2 0.8 0  2.2 0.8 0  2.4 0.8 0  2.6 0.8 0  2.8 0.8 0  3 0.8 0  3.2 0.8 0  3.4 0.8 0  3.6 0.8 0  3.8 0.8 0  4 0.8 0  4.2 0.8 0  4.4 0.8 0  4.6 0.8 0  4.8 0.8 0  5 0.8 0  5.2 0.8 0  5.4 0.8 0  5.6 0.8 0  5.8 0.8 0  6 0.8 0  6.2 0.8 0  6.4 0.8 0  6.6 0.8 0  6.8 0.8 0  7 0.8 0  7.2 0.8 0  7.4 0.8 0  7.6 0.8 0  7.8 0.8 0  8 0.8 0  8.199999999999999 0.8 0  8.4 0.8 0  8.6 0.8 0  8.800000000000001 0.8 0  9 0.8 0  9.199999999999999 0.8 0  9.4 0.8 0  9.6 0.8 0  9.800000000000001 0.8 0  10 0.8 0  0 1 0  0.2 1 0  0.4 1 0  0.6 1 0  0.8 1 0  1 1 0  1.2 1 0  1.4 1 0  1.6 1 0  1.8 1 0  2 1 0  2.2 1 0  2.4 1 0  2.6 1 0  2.8 1 0  3 1 0  3.2 1 0  3.4 1 0  3.6 1 0  3.8 1 0  4 1 0  4.2 1 0  4.4 1 0  4.6 1 0  4.8 1 0  5 1 0  5.2 1 0  5.4 1 0  5.6 1 0  5.8 1 0  6 1 0  6.2 1 0  6.4 1 0  6.6 1 0  6.8 1 0  7 1 0  7.2 1 0  7.4 1 0  7.6 1 0  7.8 1 0  8 1 0  8.199999999999999 1 0  8.4 1 0  8.6 1 0  8.800000000000001 1 0  9 1 0  9.199999999999999 1 0  9.4 1 0  9.6 1 0  9.800000000000001 1 0  10 1 0  0 1.2 0  0.2 1.2 0  0.4 1.2 0  0.6 1.2 0  0.8 1.2 0  1 1.2 0  1.2 1.2 0  1.4 1.2 0  1.6 1.2 0  1.8 1.2 0  2 1.2 0  2.2 1.2 0  2.4 1.2 0  2.6 1.2 0  2.8 1.2 0  3 1.2 0  3.2 1.2 0  3.4 1.2 0  3.6 1.2 0  3.8 1.2 0  4 1.2 0  4.2 1.2 0  4.4 1.2 0  4.6 1.2 0  4.8 1.2 0  5 1.2 0  5.2 1.2 0  5.4 1.2 0  5.6 1.2 0  5.8 1.2 0  6 1.2 0  6.2 1.2 0  6.4 1.2 0  6.6 1.2 0  6.8 1.2 0  7 1.2 0  7.2 1.2 0  7.4 1.2 0  7.6 1.2 0  7.8 1.2 0  8 1.2 0  8.199999999999999 1.2 0  8.4 1.2 0  8.6 1.2 0  8.800000000000001 1.2 0  9 1.2 0  9.199999999999999 1.2 0  9.4 1.2 0  9.6 1.2 0  9.800000000000001 1.2 0  10 1.2 0  0 1.4 0  0.2 1.4 0  0.4 1.4 0  0.6 1.4 0  0.8 1.4 0  1 1.4 0  1.2 1.4 0  1.4 1.4 0  1.6 1.4 0  1.8 1.4 0  2 1.4 0  2.2 1.4 0  2.4 1.4 0  2.6 1.4 0  2.8 1.4 0  3 1.4 0  3.2 1.4 0  3.4 1.4 0  3.6 1.4 0  3.8 1.4 0  4 1.4 0  4.2 1.4 0  4.4 1.4 0  4.6 1.4 0  4.8 1.4 0  5 1.4 0  5.2 1.4 0  5.4 1.4 0  5.6 1.4 0  5.8 1.4 0  6 1.4 0  6.2 1.4 0  6.4 1.4 0  6.6 1.4 0  6.8 1.4 0  7 1.4 0  7.2 1.4 0  7.4 1.4 0  7.6 1.4 0  7.8 1.4 0  8 1.4 0  8.199999999999999 1.4 0  8.4 1.4 0  8.6 1.4 0  8.800000000000001 1.4 0  9 1.4 0  9.199999999999999 1.4 0  9.4 1.4 0  9.6 1.4 0  9.800000000000001 1.4 0  10 1.4 0  0 1.6 0  0.2 1.6 0  0.4 1.6 0  0.6 1.6 0  0.8 1.6 0  1 1.6 0  1.2 1.6 0  1.4 1.6 0  1.6 1.6 0  1.8 1.6 0  2 1.6 0  2.2 1.6 0  2.4 1.6 0  2.6 1.6 0  2.8 1.6 0  3 1.6 0  3.2 1.6 0  3.4 1.6 0  3.6 1.6 0  3.8 1.6 0  4 1.6 0  4.2 1.6 0  4.4 1.6 0  4.6 1.6 0  4.8 1.6 0  5 1.6 0  5.2 1.6 0  5.4 1.6 0  5.6 1.6 0  5.8 1.6 0  6 1.6 0  6.2 1.6 0  6.4 1.6 0  6.6 1.6 0  6.8 1.6 0  7 1.6 0  7.2 1.6 0  7.4 1.6 0  7.6 1.6 0  7.8 1.6 0  8 1.6 0  8.199999999999999 1.6 0  8.4 1.6 0  8.6 1.6 0  8.800000000000001 1.6 0  9 1.6 0  9.199999999999999 1.6 0  9.4 1.6 0  9.6 1.6 0  9.800000000000001 1.6 0  10 1.6 0  0 1.8 0  0.2 1.8 0  0.4 1.8 0  0.6 1.8 0  0.8 1.8 0  1 1.8 0  1.2 1.8 0  1.4 1.8 0  1.6 1.8 0  1.8 1.8 0  2 1.8 0  2.2 1.8 0  2.4 1.8 0  2.6 1.8 0  2.8 1.8 0  3 1.8 0  3.2 1.8 0  3.4 1.8 0  3.6 1.8 0  3.8 1.8 0  4 1.8 0  4.2 1.8 0  4.4 1.8 0  4.6 1.8 0  4.8 1.8 0  5 1.8 0  5.2 1.8 0  5.4 1.8 0  5.6 1.8 0  5.8 1.8 0  6 1.8 0  6.2 1.8 0  6.4 1.8 0  6.6 1.8 0  6.8 1.8 0  7 1.8 0  7.2 1.8 0  7.4 1.8 0  7.6 1.8 0  7.8 1.8 0  8 1.8 0  8.199999999999999 1.8 0  8.4 1.8 0  8.6 1.8 0  8.800000000000001 1.8 0  9 1.8 0  9.199999999999999 1.8 0  9.4 1.8 0  9.6 1.8 0  9.800000000000001 1.8 0  10 1.8 0  0 2 0  0.2 2 0  0.4 2 0  0.6 2 0  0.8 2 0  1 2 0  1.2 2 0  1.4 2 0  1.6 2 0  1.8 2 0  2 2 0  2.2 2 0  2.4 2 0  2.6 2 0  2.8 2 0  3 2 0  3.2 2 0  3.4 2 0  3.6 2 0  3.8 2 0  4 2 0  4.2 2 0  4.4 2 0  4.6 2 0  4.8 2 0  5 2 0  5.2 2 0  5.4 2 0  5.6 2 0  5.8 2 0  6 2 0  6.2 2 0  6.4 2 0  6.6 2 0  6.8 2 0  7 2 0  7.2 2 0  7.4 2 0  7.6 2 0  7.8 2 0  8 2 0  8.199999999999999 2 0  8.4 2 0  8.6 2 0  8.800000000000001 2 0  9 2 0  9.199999999999999 2 0  9.4 2 0  9.6 2 0  9.800000000000001 2 0  10 2 0  0 2.2 0  0.2 2.2 0  0.4 2.2 0  0.6 2.2 0  0.8 2.2 0  1 2.2 0  1.2 2.2 0  1.4 2.2 0  1.6 2.2 0  1.8 2.2 0  2 2.2 0  2.2 2.2 0  2.4 2.2 0  2.6 2.2 0  2.8 2.2 0  3 2.2 0  3.2 2.2 0  3.4 2.2 0  3.6 2.2 0  3.8 2.2 0  4 2.2 0  4.2 2.2 0  4.4 2.2 0  4.6 2.2 0  4.8 2.2 0  5 2.2 0  5.2 2.2 0  5.4 2.2 0  5.6 2.2 0  5.8 2.2 0  6 2.2 0  6.2 2.2 0  6.4 2.2 0  6.6 2.2 0  6.8 2.2 0  7 2.2 0  7.2 2.2 0  7.4 2.2 0  7.6 2.2 0  7.8 2.2 0  8 2.2 0  8.199999999999999 2.2 0  8.4 2.2 0  8.6 2.2 0  8.800000000000001 2.2 0  9 2.2 0  9.199999999999999 2.2 0  9.4 2.2 0  9.6 2.2 0  9.800000000000001 2.2 0  10 2.2 0  0 2.4 0  0.2 2.4 0  0.4 2.4 0  0.6 2.4 0  0.8 2.4 0  1 2.4 0  1.2 2.4 0  1.4 2.4 0  1.6 2.4 0  1.8 2.4 0  2 2.4 0  2.2 2.4 0  2.4 2.4 0  2.6 2.4 0  2.8 2.4 0  3 2.4 0  3.2 2.4 0  3.4 2.4 0  3.6 2.4 0  3.8 2.4 0  4 2.4 0  4.2 2.4 0  4.4 2.4 0  4.6 2.4 0  4.8 2.4 0  5 2.4 0  5.2 2.4 0  5.4 2.4 0  5.6 2.4 0  5.8 2.4 0  6 2.4 0  6.2 2.4 0  6.4 2.4 0  6.6 2.4 0  6.8 2.4 0  7 2.4 0  7.2 2.4 0  7.4 2.4 0  7.6 2.4 0  7.8 2.4 0  8 2.4 0  8.199999999999999 2.4 0  8.4 2.4 0  8.6 2.4 0  8.800000000000001 2.4 0  9 2.4 0  9.199999999999999 2.4 0  9.4 2.4 0  9.6 2.4 0  9.800000000000001 2.4 0  10 2.4 0  0 2.6 0  0.2 2.6 0  0.4 2.6 0  0.6 2.6 0  0.8 2.6 0  1 2.6 0  1.2 2.6 0  1.4 2.6 0  1.6 2.6 0  1.8 2.6 0  2 2.6 0  2.2 2.6 0  2.4 2.6 0  2.6 2.6 0  2.8 2.6 0  3 2.6 0  3.2 2.6 0  3.4 2.6 0  3.6 2.6 0  3.8 2.6 0  4 2.6 0  4.2 2.6 0  4.4 2.6 0  4.6 2.6 0  4.8 2.6 0  5 2.6 0  5.2 2.6 0  5.4 2.6 0  5.6 2.6 0  5.8 2.6 0  6 2.6 0  6.2 2.6 0  6.4 2.6 0  6.6 2.6 0  6.8 2.6 0  7 2.6 0  7.2 2.6 0  7.4 2.6 0  7.6 2.6 0  7.8 2.6 0  8 2.6 0  8.199999999999999 2.6 0  8.4 2.6 0  8.6 2.6 0  8.800000000000001 2.6 0  9 2.6 0  9.199999999999999 2.6 0  9.4 2.6 0  9.6 2.6 0  9.800000000000001 2.6 0  10 2.6 0  0 2.8 0  0.2 2.8 0  0.4 2.8 0  0.6 2.8 0  0.8 2.8 0  1 2.8 0  1.2 2.8 0  1.4 2.8 0  1.6 2.8 0  1.8 2.8 0  2 2.8 0  2.2 2.8 0  2.4 2.8 0  2.6 2.8 0  2.8 2.8 0  3 2.8 0  3.2 2.8 0  3.4 2.8 0  3.6 2.8 0  3.8 2.8 0  4 2.8 0  4.2 2.8 0  4.4 2.8 0  4.6 2.8 0  4.8 2.8 0  5 2.8 0  5.2 2.8 0  5.4 2.8 0  5.6 2.8 0  5.8 2.8 0  6 2.8 0  6.2 2.8 0  6.4 2.8 0  6.6 2.8 0  6.8 2.8 0  7 2.8 0  7.2 2.8 0  7.4 2.8 0  7.6 2.8 0  7.8 2.8 0  8 2.8 0  8.199999999999999 2.8 0  8.4 2.8 0  8.6 2.8 0  8.800000000000001 2.8 0  9 2.8 0  9.199999999999999 2.8 0  9.4 2.8 0  9.6 2.8 0  9.800000000000001 2.8 0  10 2.8 0  0 3 0  0.2 3 0  0.4 3 0  0.6 3 0  0.8 3 0  1 3 0  1.2 3 0  1.4 3 0  1.6 3 0  1.8 3 0  2 3 0  2.2 3 0  2.4 3 0  2.6 3 0  2.8 3 0  3 3 0  3.2 3 0  3.4 3 0  3.6 3 0  3.8 3 0  4 3 0  4.2 3 0  4.4 3 0  4.6 3 0  4.8 3 0  5 3 0  5.2 3 0  5.4 3 0  5.6 3 0  5.8 3 0  6 3 0  6.2 3 0  6.4 3 0  6.6 3 0  6.8 3 0  7 3 0  7.2 3 0  7.4 3 0  7.6 3 0  7.8 3 0  8 3 0  8.199999999999999 3 0  8.4 3 0  8.6 3 0  8.800000000000001 3 0  9 3 0  9.199999999999999 3 0  9.4 3 0  9.6 3 0  9.800000000000001 3 0  10 3 0  0 3.2 0  0.2 3.2 0  0.4 3.2 0  0.6 3.2 0  0.8 3.2 0  1 3.2 0  1.2 3.2 0  1.4 3.2 0  1.6 3.2 0  1.8 3.2 0  2 3.2 0  2.2 3.2 0  2.4 3.2 0  2.6 3.2 0  2.8 3.2 0  3 3.2 0  3.2 3.2 0  3.4 3.2 0  3.6 3.2 0  3.8 3.2 0  4 3.2 0  4.2 3.2 0  4.4 3.2 0  4.6 3.2 0  4.8 3.2 0  5 3.2 0  5.2 3.2 0  5.4 3.2 0  5.6 3.2 0  5.8 3.2 0  6 3.2 0  6.2 3.2 0  6.4 3.2 0  6.6 3.2 0  6.8 3.2 0  7 3.2 0  7.2 3.2 0  7.4 3.2 0  7.6 3.2 0  7.8 3.2 0  8 3.2 0  8.199999999999999 3.2 0  8.4 3.2 0  8.6 3.2 0  8.800000000000001 3.2 0  9 3.2 0  9.199999999999999 3.2 0  9.4 3.2 0  9.6 3.2 0  9.800000000000001 3.2 0  10 3.2 0  0 3.4 0  0.2 3.4 0  0.4 3.4 0  0.6 3.4 0  0.8 3.4 0  1 
[...]
<PointData  Scalars="f_5"> 
<DataArray  type="Float64"  Name="f_5"  format="ascii">4.0199962507811375e-02  3.2350159182141602e-01  4.8443198670683502e-01  5.9705188038205537e-01  6.8426320663369300e-01  7.5646247874186179e-01  8.2044569914227439e-01  8.8121213632548812e-01  9.4301146807464920e-01  1.0098727991379681e+00  1.0859413820344346e+00  1.1757098582328325e+00  1.2840387745938779e+00  1.4148813328686569e+00  1.5633304219173081e+00  1.6874787256262584e+00  1.7069620514499027e+00  1.6790379155549846e+00  1.7936612335300279e+00  1.7910579889323819e+00  1.7974385010434095e+00  1.7949704207074895e+00  1.7893609408884499e+00  1.7836776316027505e+00  1.7800489662663368e+00  1.7797229870122311e+00  1.7830222083372531e+00  1.7893398821114195e+00  1.7972313326170937e+00  1.8045290756734156e+00  1.8082967937139482e+00  1.8032270623547000e+00  1.8031757585320598e+00  1.6907639962228760e+00  1.7214322723422346e+00  1.7095355695201666e+00  1.5880809161673093e+00  1.4382889826796874e+00  1.3052896251832629e+00  1.1948484253249791e+00  1.1031039100343183e+00  1.0251710842959378e+00  9.5653010142931705e-01  8.9301471162757096e-01  8.3057832837162016e-01  7.6495606994532728e-01  6.9113541862284933e-01  6.0230883540483682e-01  4.8806757560164493e-01  3.2548863187817628e-01  4.0660218607619696e-02  1.9284051100737450e-02  2.0288409879972835e-01  3.3529966630728192e-01  4.4037832069505761e-01  5.2276635391226323e-01  5.9241686973939844e-01  6.5478628563280228e-01  7.1455585552750456e-01  7.7577615418824453e-01  8.4237373124817616e-01  9.1846158863635075e-01  1.0085577176145621e+00  1.1181154494601644e+00  1.2563209607005921e+00  1.4345793051268836e+00  1.6177949017312427e+00  1.6717820302699122e+00  1.5918950727889178e+00  1.6563090946443810e+00  1.5892054165419855e+00  1.5815458314396476e+00  1.5771934859448076e+00  1.5719812773331547e+00  1.5671160629378884e+00  1.5640421490387231e+00  1.5636917759945752e+00  1.5663238015913272e+00  1.5714955316069803e+00  1.5781354732718287e+00  1.5847511622141113e+00  1.5901647147179463e+00  1.5983513165108953e+00  1.6622017206813644e+00  1.5979334264926446e+00  1.6876530230311393e+00  1.6439204592712111e+00  1.4616959868617383e+00  1.2803650163981546e+00  1.1394564932777969e+00  1.0277063846405177e+00  9.3561057541941917e-01  8.5763901752249572e-01  7.8924662085648367e-01  7.2629873301402237e-01  6.6485124788460859e-01  6.0083838358716013e-01  5.2956541800414725e-01  4.4556234006793116e-01  3.3886777963737380e-01  2.0479117817819384e-01  1.9610527563726256e-02  9.9292881839916965e-03  1.3490791782160616e-01  2.3717198802407655e-01  3.2390710141723411e-01  3.9657704341609040e-01  4.5985786496904857e-01  5.1792280764069765e-01  5.7454945234578347e-01  6.3330782772477534e-01  6.9779549267966734e-01  7.7186292361894582e-01  8.5983152607559854e-01  9.6700492839246543e-01  1.1018337098427196e+00  1.2736335359115809e+00  1.4505042031524331e+00  1.5157520259412154e+00  1.4677564174448370e+00  1.5399644428161763e+00  1.4801694352369101e+00  1.4747106718897358e+00  1.4710145414238152e+00  1.4661228909883244e+00  1.4614723453892802e+00  1.4585532696972543e+00  1.4583067018708316e+00  1.4610079720662090e+00  1.4662399381733442e+00  1.4729368483445200e+00  1.4795450344182990e+00  1.4846505825443364e+00  1.4911804080202571e+00  1.5496557625688641e+00  1.4769551975609385e+00  1.5333898196015019e+00  1.4767594319569137e+00  1.3007903556752809e+00  1.1262317982939498e+00  9.8877916669513199e-01  8.7939072719675193e-01  7.8938125337570209e-01  7.1338128212581697e-01  6.4704723817779319e-01  5.8651201268755926e-01  5.2816309738645051e-01  4.6841572256783559e-01  4.0347751288253153e-01  3.2916044300288250e-01  2.4077811673176316e-01  1.3681802524034112e-01  1.0277861818123535e-02  6.7042911672268186e-03  9.3136260753257677e-02  1.6874279045825141e-01  2.3756330260417663e-01  2.9825147374687888e-01  3.5335512775791383e-01  4.0552515220721219e-01  4.5766245757973256e-01  5.1275628292513753e-01  5.7397418601368899e-01  6.4479509791790945e-01  7.2916521344725149e-01  8.3196585573815574e-01  9.6092298237173046e-01  1.1235028676647376e+00  1.2897315561091369e+00  1.3622142448489192e+00  1.3443781340214855e+00  1.4219052512435113e+00  1.3745239424408882e+00  1.3712570630364882e+00  1.3683592577373958e+00  1.3639976401797720e+00  1.3597505392679063e+00  1.3571078608479206e+00  1.3570020611533349e+00  1.3597280327440207e+00  1.3649147787238223e+00  1.3715343127680995e+00  1.3780192698389526e+00  1.3828141153525606e+00  1.3879298796085107e+00  1.4368701427050061e+00  1.3585518203372431e+00  1.3815705796449449e+00  1.3162809910252380e+00  1.1511544900950126e+00  9.8615596275434725e-01  8.5463824541047306e-01  7.4958120377093018e-01  6.6309230193176227e-01  5.9024501250364492e-01  5.2708447593830643e-01  4.7012263396863330e-01  4.1617991052948805e-01  3.6225218193233011e-01  3.0542178772668915e-01  2.4302006604028256e-01  1.7248720364093376e-01  9.5119432746556279e-02  7.0769644908305193e-03  4.0276080006895519e-03  6.4657964214768396e-02  1.1959386769509953e-01  1.7234298016948973e-01  2.2125680926039376e-01  2.6761238616913458e-01  3.1311892808812519e-01  3.5994333258127714e-01  4.1052462618196817e-01  4.6758169492259705e-01  5.3418382116850049e-01  6.1386089268330679e-01  7.1101218106030972e-01  8.3242378193338395e-01  9.8358830886249760e-01  1.1371223078234718e+00  1.2129121350213616e+00  1.2105273833410199e+00  1.2811348830664815e+00  1.2675162229462826e+00  1.2679759228665137e+00  1.2667969321374779e+00  1.2635363693355652e+00  1.2600685586361500e+00  1.2579291237780008e+00  1.2580454978541902e+00  1.2607333343038760e+00  1.2656801652502390e+00  1.2719026884511810e+00  1.2777697390129614e+00  1.2813774759121817e+00  1.2832602188912132e+00  1.3021397734449969e+00  1.2294296702405163e+00  1.2346452984773162e+00  1.1647063202440076e+00  1.0124115181287798e+00  8.5911629256646505e-01  7.3515413208394642e-01  6.3563788377834163e-01  5.5370000813840647e-01  4.8492088756223545e-01  4.2577513282849477e-01  3.7319076662532086e-01  3.2443815822088456e-01  2.7706142624957864e-01  2.2887312213804939e-01  1.7814212765384652e-01  1.2357612501643185e-01  6.6768773213275082e-02  4.4353865502546868e-03  2.0269922816520203e-03  4.3812231638552766e-02  8.2577388042443745e-02  1.2178898035728986e-01  1.5993863262401389e-01  1.9777179042220380e-01  2.3642938179973619e-01  2.7754362278983097e-01  3.2308791026711781e-01  3.7536253590392094e-01  4.3703434513307204e-01  5.1121680512659973e-01  6.0180144500901434e-01  7.1455897813622327e-01  8.5346028419208964e-01  9.9488395076428593e-01  1.0733134894174250e+00  1.0812369637424051e+00  1.1295237527194346e+00  1.1629261487693137e+00  1.1645063824410364e+00  1.1654054950483375e+00  1.1638145603720167e+00  1.1616065621922000e+00  1.1603028807969606e+00  1.1607819065892273e+00  1.1633550869501599e+00  1.1677839150094340e+00  1.1731774969794584e+00  1.1779022596642403e+00  1.1799427842666181e+00  1.1804420685520527e+00  1.1547691779386351e+00  1.1036476320161628e+00  1.0980907221413045e+00  1.0246642819886984e+00  8.8442485933809512e-01  7.4349037407271812e-01  6.2806917273979712e-01  5.3490588416054319e-01  4.5823420929773639e-01  3.9416684176878536e-01  3.3960352579505415e-01  2.9187660625119249e-01  2.4867230851775926e-01  2.0799508619546234e-01  1.6818580181797724e-01  1.2807549914539834e-01  8.6899244965297398e-02  4.6102971580494395e-02  2.4803726300021444e-03  3.3056697460574200e-04  2.7692898258504031e-02  5.3488200220633816e-02  8.1296363962764642e-02  1.0986772464431793e-01  1.3972298540225936e-01  1.7167671073208529e-01  2.0698260004841865e-01  2.4723499857632961e-01  2.9436004585626246e-01  3.5064746704340960e-01  4.1881669675761246e-01  5.0226181158576100e-01  6.0577725970743512e-01  7.3252054852200221e-01  8.6406450530691947e-01  9.4734493385511298e-01  9.6603501665299196e-01  9.9755427053616119e-01  1.0601720575954119e+00  1.0622590906668727e+00  1.0655271977715355e+00  1.0662271238997800e+00  1.0658790289800906e+00  1.0658892326242100e+00  1.0669939898742800e+00  1.0694328779314777e+00  1.0730388547990861e+00  1.0770869884828076e+00  1.0800604831408116e+00  1.0801575230098348e+00  1.0795206979806131e+00  1.0259349312131822e+00  9.9369576309493723e-01  9.7718920512757845e-01  8.9783712507446467e-01  7.6688140256128723e-01  6.3785291093898266e-01  5.3137036774241009e-01  4.4499684326785899e-01  3.7400828290040083e-01  3.1503294472694365e-01  2.6536492772887965e-01  2.2270805004433014e-01  1.8511382946194138e-01  1.5095574972352246e-01  1.1894342436952311e-01  8.8225925039848524e-02  5.8257625343334798e-02  3.0215903347938663e-02  8.3994525339128282e-04  -1.1977976655088392e-03  1.4586447534712334e-02  2.9563434752667997e-02  4.7575149240628917e-02  6.7596755745274351e-02  9.0065517348855192e-02  1.1560355793290766e-01  1.4519090996468545e-01  1.8010865256250189e-01  2.2194365199336311e-01  2.7262552716160726e-01  3.3449152599138510e-01  4.1045329118007745e-01  5.0442368610936639e-01  6.1929922946652172e-01  7.4288048682495533e-01  8.3409964229080125e-01  8.6780345802529790e-01  8.9047302642292303e-01  9.4477696313230342e-01  9.6158472622345170e-01  9.6844117374214200e-01  9.7222837062019163e-01  9.7444271524325388e-01  9.7638004856923288e-01  9.7855623535634173e-01  9.8104636080924257e-01  9.8368953878830712e-01  9.8592614450214366e-01  9.8641536978852307e-01  9.8327502741318584e-01  9.7004639577179763e-01  9.2534467008865140e-01  9.0358310130220154e-01  8.7161580912322034e-01  7.8259775251021124e-01  6.5835159811079913e-01  5.4055680327376854e-01  4.4310883854220157e-01  3.6372908825133637e-01  2.9861314359417357e-01  2.4488124055109339e-01  2.0020098278526655e-01  1.6262171218129373e-01  1.3051757909566780e-01  1.0255924505892410e-01  7.7716092172572859e-02  5.5318920453762882e-02  3.4899104518915113e-02  1.7396638071695395e-02  -6.2163252762770552e-04  -2.6569795114246460e-03  3.3750624680253800e-03  8.8796873952765726e-03  1.8176253970547840e-02  3.0401108020178775e-02  4.5977471706992491e-02  6.5411758189365926e-02  8.9477735792307347e-02  1.1918476701749421e-01  1.5579384516212993e-01  2.0086461416555526e-01  2.5632727565775348e-01  3.2459528810571520e-01  4.0876930260504135e-01  5.1155286052859128e-01  6.2670233223881244e-01  7.2583676831546862e-01  7.7857583153395471e-01  8.0118044257860976e-01  8.3251134807014038e-01  8.6229228049935103e-01  8.7499217854955547e-01  8.8226976435559468e-01  8.8757023735967067e-01  8.9201939238803363e-01  8.9587198285710168e-01  8.9897958831585578e-01  9.0107609322354754e-01  9.0168232940871795e-01  8.9963272557142671e-01  8.9190806306091741e-01  8.7193899197947355e-01  8.4753329150316148e-01  8.2541686118950541e-01  7.7283098394185545e-01  6.7361524793870031e-01  5.5627182315921375e-01  4.4973719679846530e-01  3.6142364531105203e-01  2.8913221002296197e-01  2.2990347234142142e-01  1.8136354929572596e-01  1.4157215823092884e-01  1.0892456234912706e-01  8.2094507738095929e-02  6.0000531443546050e-02  4.1799402771147125e-02  2.6924650043739579e-02  1.4914650396628619e-02  6.5323863482395867e-03  -2.0017306436694491e-03  -4.1220675318257797e-03  -6.7399137824109947e-03  -1.0004791567802913e-02  -8.8192792271695273e-03  -3.9487807028579444e-03  5.0622160950509042e-03  1.8659077310022823e-02  3.7457807134621490e-02  6.2219672446123302e-02  9.3870432282388172e-02  1.3355732057735220e-01  1.8273458214216887e-01  2.4325543324934240e-01  3.1743692080841890e-01  4.0751573432452781e-01  5.1137595457231211e-01  6.1289409638038250e-01  6.8499772247581436e-01  7.2073231963902240e-01  7.4288997241437782e-01  7.6643249447652173e-01  7.8397821663406153e-01  7.9502362269108307e-01  8.0335164038299967e-01  8.1048834730473240e-01  8.1661340521276848e-01  8.2140892212909855e-01  8.2440053471691832e-01  8.2494790888371927e-01  8.2190330110244247e-01  8.1348820333004479e-01  7.9957843920084060e-01  7.8071971243836125e-01  7.4346153311408181e-01  6.6952433939648803e-01  5.6596866220612774e-01  4.5860553459610198e-01  3.6389359823040335e-01  2.8478944823371333e-01  2.1953340908912866e-01  1.6599745148497297e-01  1.2237882186496589e-01  8.7192089438208401e-02  5.9208498297368309e-02  3.7397535892073321e-02  2.0891534017491418e-02  8.9799518489894307e-03  1.1424227079016229e-03  -3.1220356094851134e-03  -3.1687537204036151e-03  -3.3729986585800333e-03  -5.6548615093652806e-03  -1.6375584236495259e-02  -2.8240466842499302e-02  -3.4985840338027700e-02  -3.7338507101681170e-02  -3.4764255654709302e-02  -2.6822964492218365e-02  -1.3009740611107429e-02  7.2050255755629483e-03  3.4385848126444497e-02  6.9196880514675582e-02  1.1251140686203814e-01  1.6552212119989207e-01  2.2976576256132480e-01  3.0679967300772565e-01  3.9633825438925074e-01  4.9104745192722776e-01  5.7330309482939212e-01  6.2743323284327823e-01  6.5694196639548896e-01  6.7660433531007680e-01  6.9298325477436096e-01  7.0579009748253574e-01  7.1613949198762028e-01  7.2540267713555251e-01  7.3402415865104842e-01  7.4169529611201179e-01  7.4762835872380162e-01  7.5074781770789278e-01  7.4986721738288786e-01  7.4372112661542089e-01  7.2961776900411757e-01  6.9960293019924513e-01  6.4243897690371188e-01  5.5737796848640453e-01  4.5937761431955221e-01  3.6512990621863772e-01  2.8238906139082320e-01  2.1223198767284482e-01  1.5362146778436336e-01  1.0526307354870221e-01  6.6020691914765395e-02  3.4954187613712093e-02  1.1261103945529432e-02  -5.7868358432740285e-03  -1.6874499914668287e-02  -2.2634443817272486e-02  -2.3598341647998095e-02  -2.0352670606852252e-02  -1.2318445696511852e-02  -4.7964558644505804e-03  -7.2978500679578727e-03  -2.6033130931156306e-02  -4.6765851857157363e-02  -6.1621629540691968e-02  -7.1351173079843552e-02  -7.5287073111552527e-02  -7.2922034187723028e-02  -6.3803654952566805e-02  -4.7612319507935381e-02  -2.4176527586074591e-02  6.5941992097721079e-03  4.4859568848905407e-02  9.1024446071827012e-02  1.4581441674781265e-01  2.1007323521966401e-01  2.8389514604392890e-01  3.6433133287987352e-01  4.4248434083067240e-01  5.0573037384225372e-01  5.4760977759312934e-01  5.7289305924421663e-01  5.8979265305582451e-01  6.0273914697321673e-01  6.1372616598598861e-01  6.2424787580154850e-01  6.3512898904603654e-01  6.4614076381836694e-01  6.5600007121326276e-01  6.6266420132404269e-01  6.6361385564151532e-01  6.5547618291113907e-01  6.3293825780740121e-01  5.8963095992017445e-01  5.2370583047338548e-01  4.4228768955051490e-01  3.5710313502530194e-01  2.7689126061042141e-01  2.0536575113290156e-01  1.4329425027741235e-01  9.0414277090911654e-02  4.6284202745550548e-02  1.0541320470816408e-02  -1.7106109574090533e-02  -3.6975764488450871e-02  -4.9489032102623065e-02  -5.5189061986138314e-02  -5.4700005525128020e-02  -4.8638826857824988e-02  -3.7734064623282423e-02  -2.1419009462632411e-02  -6.3230936929959064e-03  -9.0847473604134688e-03  -3.6124695778358897e-02  -6.6270756209768009e-02  -8.9668012791530194e-02  -1.0713381875471054e-01  -1.1781471906710179e-01  -1.2104068000772196e-01  -1.1633389485149208e-01  -1.0354519563686838e-01  -8.2915513812580402e-02  -5.5024943244226680e-02  -2.0584194411777459e-02  1.9870234282863056e-02  6.6182535308394685e-02  1.1849921051389371e-01  1.7677714741697256e-01  2.3972748637405719e-01  3.0333697990801645e-01  3.6062537161286817e-01  4.0502336989073745e-01  4.3511485746879103e-01  4.5463432112378427e-01  4.6835436815551035e-01  4.7983403349433085e-01  4.9152568762172727e-01  5.0473100046035124e-01  5.1916853187118595e-01  5.3286724743226932e-01  5.4256329413889759e-01  5.4427112984293580e-01  5.3366864004549386e-01  5.0675156296605839e-01  4.6180737561682511e-01  4.0165216398001768e-01  3.3292741646699847e-01  2.6257801797274477e-01  1.9528474212484082e-01  1.3338263741901646e-01  7.7855833531184956e-02  2.9197861754934818e-02  -1.2129821244746583e-02  -4.5596450918640397e-02  -7.0732769444924543e-02  -8.7316406302967775e-02  -9.5472465101949913e-02  -9.5664045847200146e-02  -8.8600539331720268e-02  -7.5084652808470098e-02  -5.6053456331188599e-02  -3.0892728662556705e-02  -7.9801594860569973e-03  -1.1253165780447858e-02  -4.6880820999396951e-02  -8.6964456780259339e-02  -1.1935485876765106e-01  -1.4493534857209880e-01  -1.6263013925505382e-01  -1.7150178795223961e-01  -1.7095853509680245e-01  -1.6095079163761791e-01  -1.4210102749655878e-01  -1.1572880703008306e-01  -8.3586643700692825e-02  -4.7337402294619413e-02  -8.1229693482728349e-03  3.3498228564277616e-02  7.7220047722309337e-02  1.2236378648254237e-01  1.6714283441190950e-01  2.0834274892344107e-01  2.4231220519247967e-01  2.6716555063102193e-01  2.8408948723341709e-01  2.9637505191946389e-01  3.0768024848319014e-01  3.2093401842037589e-01  3.3758071130676842e-01  3.5699032732246350e-01  3.7642711552665675e-01  3.9171249498994343e-01  3.9826944410817727e-01  3.9218171642557575e-01  3.7122165178421912e-01  3.3576486390210170e-01  2.8885838480019665e-01  2.3495199931853378e-01  1.7821213165619310e-01  1.2163966982598332e-01  6.7141433838855957e-02  1.6040443981823901e-02  -3.0411468709811394e-02  -7.0763674689502204e-02  -1.0344561323795159e-01  -1.2710928903140181e-01  -1.4096266518696593e-01  -1.4487897221066104e-01  -1.3932506504279474e-01  -1.2520785859438296e-01  -1.0364023403471258e-01  -7.5829043487951317e-02  -4.1087780938560622e-02  -9.8099946460124109e-03  -1.5381245426845361e-02  -5.7460819146135399e-02  -1.0777275387257761e-01  -1.4914520681834714e-01  -1.8275181145115377e-01  -2.0741198101810820e-01  -2.2191608344735161e-01  -2.2550042147944224e-01  -2.1803425950020591e-01  -2.0029166036984408e-01  -1.7427125059993026e-01  -1.4293637250691560e-01  -1.0931014803268455e-01  -7.5666903485779313e-02  -4.3310916626370280e-02  -1.2857185892762876e-02  1.5267471889120102e-02  4.0360205058200795e-02  6.1278307478299376e-02  7.6855944086531819e-02  8.6875898173054716e-02  9.2896991836159154e-02  9.8130067979014704e-02  1.0641607573708124e-01  1.2090177129759287e-01  1.4282062926831682e-01  1.7076476157608858e-01  2.0085175255876467e-01  2.2778704782436060e-01  2.4633825925041072e-01  2.5263352558216834e-01  2.4494287221988145e-01  2.2381750436756806e-01  1.9155057794697472e-01  1.5118687933050420e-01  1.0560726937838234e-01  5.7099614128944820e-02  7.4511624624578549e-03  -4.1644829712602992e-02  -8.8147365169851222e-02  -1.2948820650103832e-01  -1.6287914116519767e-01  -1.8600369792517452e-01  -1.9756526592214463e-01  -1.9731084570014720e-01  -1.8580149503836335e-01  -1.6422213234119271e-01  -1.3410433460341206e-01  -9.6972294733612047e-02  -5.2049892761276265e-02  -1.2218930856119855e-02  -2.8083023640112954e-02  -6.4668277006712266e-02  -1.2294421665550381e-01  -1.7135975467375472e-01  -2.1094371294424938e-01  -2.4132084551236005e-01  -2.6151498456649885e-01  -2.7055376872783798e-01  -2.6751799160466583e-01  -2.5229163262231435e-01  -2.2695089319060677e-01  -1.9582033546734087e-01  -1.6373825812644902e-01  -1.3442541904664329e-01  -1.1005521063749599e-01  -9.1623533730767426e-02  -7.9506054631574369e-02  -7.3857056491101761e-02  -7.4667239231136120e-02  -8.1412299651972303e-02  -9.2418891005482631e-02  -1.0435579680038075e-01  -1.1236848034054252e-01  -1.1110316325211914e-01  -9.6406826148043190e-02  -6.7075083700385674e-02  -2.5773853060146058e-02  2.1490641655568018e-02  6.7175400920594597e-02  1.0436518953965324e-01  1.2833860642084838e-01  1.3711163330567036e-01  1.3108934948537673e-01  1.1220877537976055e-01  8.2986654112230052e-02  4.5815092653276428e-02  2.6954237145465588e-03  -4.4579055983367331e-02  -9.3927787209038618e-02  -1.4244302427236633e-01  -1.8622376462529461e-01  -2.2102686653482151e-01  -2.4360198852313908e-01  -2.5256482986275047e-01  -2.4800144214977979e-01  -2.3071766824151824e-01  -2.0205330821961773e-01  -1.6379593541471182e-01  -1.1755579623186620e-01  -6.2239929386547189e-02  -1.7815513528994346e-02  -4.5872678234119106e-02  -6.2477389496140817e-02  -1.1535699253730343e-01  -1.6229793140739171e-01  -2.0251479306543260e-01  -2.3665307391871362e-01  -2.640524103499677