<?xml version="1.0"?>
<VTKFile type="UnstructuredGrid"  version="0.1"  >
<UnstructuredGrid>
<Piece  NumberOfPoints="2601" NumberOfCells="5000">
<Points>
<DataArray  type="Float64"  NumberOfComponents="3"  format="ascii">0 0 0  0.02 0 0  0.04 0 0  0.06 0 0  0.08 0 0  0.1 0 0  0.12 0 0  0.14 0 0  0.16 0 0  0.18 0 0  0.2 0 0  0.22 0 0  0.24 0 0  0.26 0 0  0.28 0 0  0.3 0 0  0.32 0 0  0.34 0 0  0.36 0 0  0.38 0 0  0.4 0 0  0.42 0 0  0.44 0 0  0.46 0 0  0.48 0 0  0.5 0 0  0.52 0 0  0.54 0 0  0.5600000000000001 0 0  0.58 0 0  0.6 0 0  0.62 0 0  0.64 0 0  0.66 0 0  0.68 0 0  0.7 0 0  0.72 0 0  0.74 0 0  0.76 0 0  0.78 0 0  0.8 0 0  0.82 0 0  0.84 0 0  0.86 0 0  0.88 0 0  0.9 0 0  0.92 0 0  0.9399999999999999 0 0  0.96 0 0  0.98 0 0  1 0 0  0 0.02 0  0.02 0.02 0  0.04 0.02 0  0.06 0.02 0  0.08 0.02 0  0.1 0.02 0  0.12 0.02 0  0.14 0.02 0  0.16 0.02 0  0.18 0.02 0  0.2 0.02 0  0.22 0.02 0  0.24 0.02 0  0.26 0.02 0  0.28 0.02 0  0.3 0.02 0  0.32 0.02 0  0.34 0.02 0  0.36 0.02 0  0.38 0.02 0  0.4 0.02 0  0.42 0.02 0  0.44 0.02 0  0.46 0.02 0  0.48 0.02 0  0.5 0.02 0  0.52 0.02 0  0.54 0.02 0  0.5600000000000001 0.02 0  0.58 0.02 0  0.6 0.02 0  0.62 0.02 0  0.64 0.02 0  0.66 0.02 0  0.68 0.02 0  0.7 0.02 0  0.72 0.02 0  0.74 0.02 0  0.76 0.02 0  0.78 0.02 0  0.8 0.02 0  0.82 0.02 0  0.84 0.02 0  0.86 0.02 0  0.88 0.02 0  0.9 0.02 0  0.92 0.02 0  0.9399999999999999 0.02 0  0.96 0.02 0  0.98 0.02 0  1 0.02 0  0 0.04 0  0.02 0.04 0  0.04 0.04 0  0.06 0.04 0  0.08 0.04 0  0.1 0.04 0  0.12 0.04 0  0.14 0.04 0  0.16 0.04 0  0.18 0.04 0  0.2 0.04 0  0.22 0.04 0  0.24 0.04 0  0.26 0.04 0  0.28 0.04 0  0.3 0.04 0  0.32 0.04 0  0.34 0.04 0  0.36 0.04 0  0.38 0.04 0  0.4 0.04 0  0.42 0.04 0  0.44 0.04 0  0.46 0.04 0  0.48 0.04 0  0.5 0.04 0  0.52 0.04 0  0.54 0.04 0  0.5600000000000001 0.04 0  0.58 0.04 0  0.6 0.04 0  0.62 0.04 0  0.64 0.04 0  0.66 0.04 0  0.68 0.04 0  0.7 0.04 0  0.72 0.04 0  0.74 0.04 0  0.76 0.04 0  0.78 0.04 0  0.8 0.04 0  0.82 0.04 0  0.84 0.04 0  0.86 0.04 0  0.88 0.04 0  0.9 0.04 0  0.92 0.04 0  0.9399999999999999 0.04 0  0.96 0.04 0  0.98 0.04 0  1 0.04 0  0 0.06 0  0.02 0.06 0  0.04 0.06 0  0.06 0.06 0  0.08 0.06 0  0.1 0.06 0  0.12 0.06 0  0.14 0.06 0  0.16 0.06 0  0.18 0.06 0  0.2 0.06 0  0.22 0.06 0  0.24 0.06 0  0.26 0.06 0  0.28 0.06 0  0.3 0.06 0  0.32 0.06 0  0.34 0.06 0  0.36 0.06 0  0.38 0.06 0  0.4 0.06 0  0.42 0.06 0  0.44 0.06 0  0.46 0.06 0  0.48 0.06 0  0.5 0.06 0  0.52 0.06 0  0.54 0.06 0  0.5600000000000001 0.06 0  0.58 0.06 0  0.6 0.06 0  0.62 0.06 0  0.64 0.06 0  0.66 0.06 0  0.68 0.06 0  0.7 0.06 0  0.72 0.06 0  0.74 0.06 0  0.76 0.06 0  0.78 0.06 0  0.8 0.06 0  0.82 0.06 0  0.84 0.06 0  0.86 0.06 0  0.88 0.06 0  0.9 0.06 0  0.92 0.06 0  0.9399999999999999 0.06 0  0.96 0.06 0  0.98 0.06 0  1 0.06 0  0 0.08 0  0.02 0.08 0  0.04 0.08 0  0.06 0.08 0  0.08 0.08 0  0.1 0.08 0  0.12 0.08 0  0.14 0.08 0  0.16 0.08 0  0.18 0.08 0  0.2 0.08 0  0.22 0.08 0  0.24 0.08 0  0.26 0.08 0  0.28 0.08 0  0.3 0.08 0  0.32 0.08 0  0.34 0.08 0  0.36 0.08 0  0.38 0.08 0  0.4 0.08 0  0.42 0.08 0  0.44 0.08 0  0.46 0.08 0  0.48 0.08 0  0.5 0.08 0  0.52 0.08 0  0.54 0.08 0  0.5600000000000001 0.08 0  0.58 0.08 0  0.6 0.08 0  0.62 0.08 0  0.64 0.08 0  0.66 0.08 0  0.68 0.08 0  0.7 0.08 0  0.72 0.08 0  0.74 0.08 0  0.76 0.08 0  0.78 0.08 0  0.8 0.08 0  0.82 0.08 0  0.84 0.08 0  0.86 0.08 0  0.88 0.08 0  0.9 0.08 0  0.92 0.08 0  0.9399999999999999 0.08 0  0.96 0.08 0  0.98 0.08 0  1 0.08 0  0 0.1 0  0.02 0.1 0  0.04 0.1 0  0.06 0.1 0  0.08 0.1 0  0.1 0.1 0  0.12 0.1 0  0.14 0.1 0  0.16 0.1 0  0.18 0.1 0  0.2 0.1 0  0.22 0.1 0  0.24 0.1 0  0.26 0.1 0  0.28 0.1 0  0.3 0.1 0  0.32 0.1 0  0.34 0.1 0  0.36 0.1 0  0.38 0.1 0  0.4 0.1 0  0.42 0.1 0  0.44 0.1 0  0.46 0.1 0  0.48 0.1 0  0.5 0.1 0  0.52 0.1 0  0.54 0.1 0  0.5600000000000001 0.1 0  0.58 0.1 0  0.6 0.1 0  0.62 0.1 0  0.64 0.1 0  0.66 0.1 0  0.68 0.1 0  0.7 0.1 0  0.72 0.1 0  0.74 0.1 0  0.76 0.1 0  0.78 0.1 0  0.8 0.1 0  0.82 0.1 0  0.84 0.1 0  0.86 0.1 0  0.88 0.1 0  0.9 0.1 0  0.92 0.1 0  0.9399999999999999 0.1 0  0.96 0.1 0  0.98 0.1 0  1 0.1 0  0 0.12 0  0.02 0.12 0  0.04 0.12 0  0.06 0.12 0  0.08 0.12 0  0.1 0.12 0  0.12 0.12 0  0.14 0.12 0  0.16 0.12 0  0.18 0.12 0  0.2 0.12 0  0.22 0.12 0  0.24 0.12 0  0.26 0.12 0  0.28 0.12 0  0.3 0.12 0  0.32 0.12 0  0.34 0.12 0  0.36 0.12 0  0.38 0.12 0  0.4 0.12 0  0.42 0.12 0  0.44 0.12 0  0.46 0.12 0  0.48 0.12 0  0.5 0.12 0  0.52 0.12 0  0.54 0.12 0  0.5600000000000001 0.12 0  0.58 0.12 0  0.6 0.12 0  0.62 0.12 0  0.64 0.12 0  0.66 0.12 0  0.68 0.12 0  0.7 0.12 0  0.72 0.12 0  0.74 0.12 0  0.76 0.12 0  0.78 0.12 0  0.8 0.12 0  0.82 0.12 0  0.84 0.12 0  0.86 0.12 0  0.88 0.12 0  0.9 0.12 0  0.92 0.12 0  0.9399999999999999 0.12 0  0.96 0.12 0  0.98 0.12 0  1 0.12 0  0 0.14 0  0.02 0.14 0  0.04 0.14 0  0.06 0.14 0  0.08 0.14 0  0.1 0.14 0  0.12 0.14 0  0.14 0.14 0  0.16 0.14 0  0.18 0.14 0  0.2 0.14 0  0.22 0.14 0  0.24 0.14 0  0.26 0.14 0  0.28 0.14 0  0.3 0.14 0  0.32 0.14 0  0.34 0.14 0  0.36 0.14 0  0.38 0.14 0  0.4 0.14 0  0.42 0.14 0  0.44 0.14 0  0.46 0.14 0  0.48 0.14 0  0.5 0.14 0  0.52 0.14 0  0.54 0.14 0  0.5600000000000001 0.14 0  0.58 0.14 0  0.6 0.14 0  0.62 0.14 0  0.64 0.14 0  0.66 0.14 0  0.68 0.14 0  0.7 0.14 0  0.72 0.14 0  0.74 0.14 0  0.76 0.14 0  0.78 0.14 0  0.8 0.14 0  0.82 0.14 0  0.84 0.14 0  0.86 0.14 0  0.88 0.14 0  0.9 0.14 0  0.92 0.14 0  0.9399999999999999 0.14 0  0.96 0.14 0  0.98 0.14 0  1 0.14 0  0 0.16 0  0.02 0.16 0  0.04 0.16 0  0.06 0.16 0  0.08 0.16 0  0.1 0.16 0  0.12 0.16 0  0.14 0.16 0  0.16 0.16 0  0.18 0.16 0  0.2 0.16 0  0.22 0.16 0  0.24 0.16 0  0.26 0.16 0  0.28 0.16 0  0.3 0.16 0  0.32 0.16 0  0.34 0.16 0  0.36 0.16 0  0.38 0.16 0  0.4 0.16 0  0.42 0.16 0  0.44 0.16 0  0.46 0.16 0  0.48 0.16 0  0.5 0.16 0  0.52 0.16 0  0.54 0.16 0  0.5600000000000001 0.16 0  0.58 0.16 0  0.6 0.16 0  0.62 0.16 0  0.64 0.16 0  0.66 0.16 0  0.68 0.16 0  0.7 0.16 0  0.72 0.16 0  0.74 0.16 0  0.76 0.16 0  0.78 0.16 0  0.8 0.16 0  0.82 0.16 0  0.84 0.16 0  0.86 0.16 0  0.88 0.16 0  0.9 0.16 0  0.92 0.16 0  0.9399999999999999 0.16 0  0.96 0.16 0  0.98 0.16 0  1 0.16 0  0 0.18 0  0.02 0.18 0  0.04 0.18 0  0.06 0.18 0  0.08 0.18 0  0.1 0.18 0  0.12 0.18 0  0.14 0.18 0  0.16 0.18 0  0.18 0.18 0  0.2 0.18 0  0.22 0.18 0  0.24 0.18 0  0.26 0.18 0  0.28 0.18 0  0.3 0.18 0  0.32 0.18 0  0.34 0.18 0  0.36 0.18 0  0.38 0.18 0  0.4 0.18 0  0.42 0.18 0  0.44 0.18 0  0.46 0.18 0  0.48 0.18 0  0.5 0.18 0  0.52 0.18 0  0.54 0.18 0  0.5600000000000001 0.18 0  0.58 0.18 0  0.6 0.18 0  0.62 0.18 0  0.64 0.18 0  0.66 0.18 0  0.68 0.18 0  0.7 0.18 0  0.72 0.18 0  0.74 0.18 0  0.76 0.18 0  0.78 0.18 0  0.8 0.18 0  0.82 0.18 0  0.84 0.18 0  0.86 0.18 0  0.88 0.18 0  0.9 0.18 0  0.92 0.18 0  0.9399999999999999 0.18 0  0.96 0.18 0  0.98 0.18 0  1 0.18 0  0 0.2 0  0.02 0.2 0  0.04 0.2 0  0.06 0.2 0  0.08 0.2 0  0.1 0.2 0  0.12 0.2 0  0.14 0.2 0  0.16 0.2 0  0.18 0.2 0  0.2 0.2 0  0.22 0.2 0  0.24 0.2 0  0.26 0.2 0  0.28 0.2 0  0.3 0.2 0  0.32 0.2 0  0.34 0.2 0  0.36 0.2 0  0.38 0.2 0  0.4 0.2 0  0.42 0.2 0  0.44 0.2 0  0.46 0.2 0  0.48 0.2 0  0.5 0.2 0  0.52 0.2 0  0.54 0.2 0  0.5600000000000001 0.2 0  0.58 0.2 0  0.6 0.2 0  0.62 0.2 0  0.64 0.2 0  0.66 0.2 0  0.68 0.2 0  0.7 0.2 0  0.72 0.2 0  0.74 0.2 0  0.76 0.2 0  0.78 0.2 0  0.8 0.2 0  0.82 0.2 0  0.84 0.2 0  0.86 0.2 0  0.88 0.2 0  0.9 0.2 0  0.92 0.2 0  0.9399999999999999 0.2 0  0.96 0.2 0  0.98 0.2 0  1 0.2 0  0 0.22 0  0.02 0.22 0  0.04 0.22 0  0.06 0.22 0  0.08 0.22 0  0.1 0.22 0  0.12 0.22 0  0.14 0.22 0  0.16 0.22 0  0.18 0.22 0  0.2 0.22 0  0.22 0.22 0  0.24 0.22 0  0.26 0.22 0  0.28 0.22 0  0.3 0.22 0  0.32 0.22 0  0.34 0.22 0  0.36 0.22 0  0.38 0.22 0  0.4 0.22 0  0.42 0.22 0  0.44 0.22 0  0.46 0.22 0  0.48 0.22 0  0.5 0.22 0  0.52 0.22 0  0.54 0.22 0  0.5600000000000001 0.22 0  0.58 0.22 0  0.6 0.22 0  0.62 0.22 0  0.64 0.22 0  0.66 0.22 0  0.68 0.22 0  0.7 0.22 0  0.72 0.22 0  0.74 0.22 0  0.76 0.22 0  0.78 0.22 0  0.8 0.22 0  0.82 0.22 0  0.84 0.22 0  0.86 0.22 0  0.88 0.22 0  0.9 0.22 0  0.92 0.22 0  0.9399999999999999 0.22 0  0.96 0.22 0  0.98 0.22 0  1 0.22 0  0 0.24 0  0.02 0.24 0  0.04 0.24 0  0.06 0.24 0  0.08 0.24 0  0.1 0.24 0  0.12 0.24 0  0.14 0.24 0  0.16 0.24 0  0.18 0.24 0  0.2 0.24 0  0.22 0.24 0  0.24 0.24 0  0.26 0.24 0  0.28 0.24 0  0.3 0.24 0  0.32 0.24 0  0.34 0.24 0  0.36 0.24 0  0.38 0.24 0  0.4 0.24 0  0.42 0.24 0  0.44 0.24 0  0.46 0.24 0  0.48 0.24 0  0.5 0.24 0  0.52 0.24 0  0.54 0.24 0  0.5600000000000001 0.24 0  0.58 0.24 0  0.6 0.24 0  0.62 0.24 0  0.64 0.24 0  0.66 0.24 0  0.68 0.24 0  0.7 0.24 0  0.72 0.24 0  0.74 0.24 0  0.76 0.24 0  0.78 0.24 0  0.8 0.24 0  0.82 0.24 0  0.84 0.24 0  0.86 0.24 0  0.88 0.24 0  0.9 0.24 0  0.92 0.24 0  0.9399999999999999 0.24 0  0.96 0.24 0  0.98 0.24 0  1 0.24 0  0 0.26 0  0.02 0.26 0  0.04 0.26 0  0.06 0.26 0  0.08 0.26 0  0.1 0.26 0  0.12 0.26 0  0.14 0.26 0  0.16 0.26 0  0.18 0.26 0  0.2 0.26 0  0.22 0.26 0  0.24 0.26 0  0.26 0.26 0  0.28 0.26 0  0.3 0.26 0  0.32 0.26 0  0.34 0.26 0  0.36 0.26 0  0.38 0.26 0  0.4 0.26 0  0.42 0.26 0  0.44 0.26 0  0.46 0.26 0  0.48 0.26 0  0.5 0.26 0  0.52 0.26 0  0.54 0.26 0  0.5600000000000001 0.26 0  0.58 0.26 0  0.6 0.26 0  0.62 0.26 0  0.64 0.26 0  0.66 0.26 0  0.68 0.26 0  0.7 0.26 0  0.72 0.26 0  0.74 0.26 0  0.76 0.26 0  0.78 0.26 0  0.8 0.26 0  0.82 0.26 0  0.84 0.26 0  0.86 0.26 0  0.88 0.26 0  0.9 0.26 0  0.92 0.26 0  0.9399999999999999 0.26 0  0.96 0.26 0  0.98 0.26 0  1 0.26 0  0 0.28 0  0.02 0.28 0  0.04 0.28 0  0.06 0.28 0  0.08 0.28 0  0.1 0.28 0  0.12 0.28 0  0.14 0.28 0  0.16 0.28 0  0.18 0.28 0  0.2 0.28 0  0.22 0.28 0  0.24 0.28 0  0.26 0.28 0  0.28 0.28 0  0.3 0.28 0  0.32 0.28 0  0.34 0.28 0  0.36 0.28 0  0.38 0.28 0  0.4 0.28 0  0.42 0.28 0  0.44 0.28 0  0.46 0.28 0  0.48 0.28 0  0.5 0.28 0  0.52 0.28 0  0.54 0.28 0  0.5600000000000001 0.28 0  0.58 0.28 0  0.6 0.28 0  0.62 0.28 0  0.64 0.28 0  0.66 0.28 0  0.68 0.28 0  0.7 0.28 0  0.72 0.28 0  0.74 0.28 0  0.76 0.28 0  0.78 0.28 0  0.8 0.28 0  0.82 0.28 0  0.84 0.28 0  0.86 0.28
[...]
<PointData  Scalars="f_1200075"> 
<DataArray  type="Float64"  Name="f_1200075"  format="ascii">5.0021291014609992e-01  5.0003247148815277e-01  5.0001722538938509e-01  4.9999883134388040e-01  4.9998756638569658e-01  4.9997935234228352e-01  4.9997292129730198e-01  4.9996772767850589e-01  4.9996340195173100e-01  4.9995971781826876e-01  4.9995652054905015e-01  4.9995369947182178e-01  4.9995117230238278e-01  4.9994887578123060e-01  4.9994675997988447e-01  4.9994478465375125e-01  4.9994291683374342e-01  4.9994112917166678e-01  4.9993939876135829e-01  4.9993770626110373e-01  4.9993603520396973e-01  4.9993437144077818e-01  4.9993270266775164e-01  4.9993101800382839e-01  4.9992930762608234e-01  4.9992756246261710e-01  4.9992577391605636e-01  4.9992393362882309e-01  4.9992203330461960e-01  4.9992006454582866e-01  4.9991801868786556e-01  4.9991588663353620e-01  4.9991365865585546e-01  4.9991132413214517e-01  4.9990887118204447e-01  4.9990628617464100e-01  4.9990355305919459e-01  4.9990065245816573e-01  4.9989756042088107e-01  4.9989424670018706e-01  4.9989067224585282e-01  4.9988678561434602e-01  4.9988251712814330e-01  4.9987777034523168e-01  4.9987240121421000e-01  4.9986622887801924e-01  4.9985874190386670e-01  4.9984985163230972e-01  4.9983964509818640e-01  4.9979680491175926e-01  4.9999686006715233e-01  5.0004944691494635e-01  4.9819046138898804e-01  4.9677096441899693e-01  4.9561084990923260e-01  4.9463827628130175e-01  4.9379959057396006e-01  4.9306688545774097e-01  4.9242073392410318e-01  4.9184747702064463e-01  4.9133698687004829e-01  4.9088148651302432e-01  4.9047484954341719e-01  4.9011215137390313e-01  4.8978937267561118e-01  4.8950319542681969e-01  4.8925085848246574e-01  4.8903005271409433e-01  4.8883884328109378e-01  4.8867561099313062e-01  4.8853900740094247e-01  4.8842792001733848e-01  4.8834144518766204e-01  4.8827886689403566e-01  4.8823964035575301e-01  4.8822337960185463e-01  4.8822984840843664e-01  4.8825895426179139e-01  4.8831074515434103e-01  4.8838540904629935e-01  4.8848327600314095e-01  4.8860482315845777e-01  4.8875068267044802e-01  4.8892165298447265e-01  4.8911871392473233e-01  4.8934304638393689e-01  4.8959605775489307e-01  4.8987941477006908e-01  4.9019508615971563e-01  4.9054539866492147e-01  4.9093311170188436e-01  4.9136151874270600e-01  4.9183458826640142e-01  4.9235716483254660e-01  4.9293526682474254e-01  4.9357654491401920e-01  4.9429102071355030e-01  4.9509238611829631e-01  4.9600070394824980e-01  4.9704491690771907e-01  4.9829412149476526e-01  4.9981112369030112e-01  5.0003669796008265e-01  4.9687659934960715e-01  4.9425920420317260e-01  4.9205736420543639e-01  4.9016900422428250e-01  4.8852538644861415e-01  4.8708115408435870e-01  4.8580274497376008e-01  4.8466568826187761e-01  4.8365126746228215e-01  4.8274486084305918e-01  4.8193480050850768e-01  4.8121162132548267e-01  4.8056754576276633e-01  4.7999612043046219e-01  4.7949195377032061e-01  4.7905052280107424e-01  4.7866802819284215e-01  4.7834128378811286e-01  4.7806763132486574e-01  4.7784487394821784e-01  4.7767122405488222e-01  4.7754526252168372e-01  4.7746590707620706e-01  4.7743238813930033e-01  4.7744423124669849e-01  4.7750124539847427e-01  4.7760351666092637e-01  4.7775140698190627e-01  4.7794555835965136e-01  4.7818690223011695e-01  4.7847667454090992e-01  4.7881643726736522e-01  4.7920810716156925e-01  4.7965399310485618e-01  4.8015684420708216e-01  4.8071991160963945e-01  4.8134702821947201e-01  4.8204271250747960e-01  4.8281230538535264e-01  4.8366215358281961e-01  4.8459986022802976e-01  4.8563463455061473e-01  4.8677779502847368e-01  4.8804350829521015e-01  4.8944993910875328e-01  4.9102104477822184e-01  4.9278952431055123e-01  4.9480262614218878e-01  4.9712675125812772e-01  4.9986966320744597e-01  5.0002015425423918e-01  4.9583038269976720e-01  4.9222874879373224e-01  4.8911291968262971e-01  4.8639203679336585e-01  4.8399861056983828e-01  4.8187976632647395e-01  4.7999479680883489e-01  4.7831222366405685e-01  4.7680710772413826e-01  4.7545948041483238e-01  4.7425310826962902e-01  4.7317464311913943e-01  4.7221300294100382e-01  4.7135891911167077e-01  4.7060459982218639e-01  4.6994347631799599e-01  4.6937000863572703e-01  4.6887953543304034e-01  4.6846815680686571e-01  4.6813264160530876e-01  4.6787035432258722e-01  4.6767919729491397e-01  4.6755756538307430e-01  4.6750431135761739e-01  4.6751872109105702e-01  4.6760049646546192e-01  4.6774974597619134e-01  4.6796698348512000e-01  4.6825313348365044e-01  4.6860954355461149e-01  4.6903800567033926e-01  4.6954078616705480e-01  4.7012066520395362e-01  4.7078098801045587e-01  4.7152573049512037e-01  4.7235958284130103e-01  4.7328805618864256e-01  4.7431761965738090e-01  4.7545587804412381e-01  4.7671180499706106e-01  4.7809605337474431e-01  4.7962137412352546e-01  4.8130319258193760e-01  4.8316040748848527e-01  4.8521653836827960e-01  4.8750128324186576e-01  4.9005299247020134e-01  4.9292081807798171e-01  4.9617056587524444e-01  4.9987960537136289e-01  5.0000983567037638e-01  4.9497044133176832e-01  4.9053519566438269e-01  4.8662474416731410e-01  4.8316245599635699e-01  4.8008536868709595e-01  4.7734061780582709e-01  4.7488534108714736e-01  4.7268451629452202e-01  4.7070946115459605e-01  4.6893655712361493e-01  4.6734619625362123e-01  4.6592199296643455e-01  4.6465017023675603e-01  4.6351909024570020e-01  4.6251889156455306e-01  4.6164120721200524e-01  4.6087894364604515e-01  4.6022610819775162e-01  4.5967766916695851e-01  4.5922944457018550e-01  4.5887801270921219e-01  4.5862063989633040e-01  4.5845522687941831e-01  4.5838026538697274e-01  4.5839480700702379e-01  4.5849844062546080e-01  4.5869128324537034e-01  4.5897397589564404e-01  4.5934768877056670e-01  4.5981413883349809e-01  4.6037561473739702e-01  4.6103501198300839e-01  4.6179588072582461e-01  4.6266248624489525e-01  4.6363988611217882e-01  4.6473402750078013e-01  4.6595186959666857e-01  4.6730153809146679e-01  4.6879252136082350e-01  4.7043592127155426e-01  4.7224477648242291e-01  4.7423448143905811e-01  4.7642333414228982e-01  4.7883324525346954e-01  4.8149067349778618e-01  4.8442774636286218e-01  4.8768378851428662e-01  4.9130626536670691e-01  4.9535345675938280e-01  4.9989027367013938e-01  5.0000231584447885e-01  4.9424112606009496e-01  4.8909205138280404e-01  4.8449142001303891e-01  4.8037287450139055e-01  4.7668000268408817e-01  4.7336308199626353e-01  4.7037975515362807e-01  4.6769401928533294e-01  4.6527545287564026e-01  4.6309831755502651e-01  4.6114079305027966e-01  4.5938433100223258e-01  4.5781312085103631e-01  4.5641365752726848e-01  4.5517439439439816e-01  4.5408546349921841e-01  4.5313845089307997e-01  4.5232621320795252e-01  4.5164272205648814e-01  4.5108295531491427e-01  4.5064278232975308e-01  4.5031889384111262e-01  4.5010874701767184e-01  4.5001049711983876e-01  4.5002297237885652e-01  4.5014564641194554e-01  4.5037863453238963e-01  4.5072267107664088e-01  4.5117913989802527e-01  4.5175008204900080e-01  4.5243821273479246e-01  4.5324697558522015e-01  4.5418058954096963e-01  4.5524411242694479e-01  4.5644352490618456e-01  4.5778583408177592e-01  4.5927920074738515e-01  4.6093309755754514e-01  4.6275850464121188e-01  4.6476815264022497e-01  4.6697682518523398e-01  4.6940173416181175e-01  4.7206298485392795e-01  4.7498413652561561e-01  4.7819288857016934e-01  4.8172177814309886e-01  4.8560914829155422e-01  4.8989909456843600e-01  4.9464389113286900e-01  4.9989846085005396e-01  4.9999646733102893e-01  4.9361366069112228e-01  4.8784673209666912e-01  4.8264283581709172e-01  4.7794381126204794e-01  4.7369951763128959e-01  4.6986396589753665e-01  4.6639668719252603e-01  4.6326223205019917e-01  4.6042980993178922e-01  4.5787275231851604e-01  4.5556800368081063e-01  4.5349563863798592e-01  4.5163843927741437e-01  4.4998153015956821e-01  4.4851207874056331e-01  4.4721902828061899e-01  4.4609289292879956e-01  4.4512556353971455e-01  4.4431017931036881e-01  4.4364103323476844e-01  4.4311335610819041e-01  4.4272336937954004e-01  4.4246811952109977e-01  4.4234543923632663e-01  4.4235395631949570e-01  4.4249303120074523e-01  4.4276276363787026e-01  4.4316394959866068e-01  4.4369818969948016e-01  4.4436775832727815e-01  4.4517573392432991e-01  4.4612603485649083e-01  4.4722344293340327e-01  4.4847367399823163e-01  4.4988347254748517e-01  4.5146070719968384e-01  4.5321449716937451e-01  4.5515536297502129e-01  4.5729540826662862e-01  4.5964853888628021e-01  4.6223072589523523e-01  4.6506031778233536e-01  4.6815840778969015e-01  4.7154924634225942e-01  4.7526071389685681e-01  4.7932471920947395e-01  4.8377781907618289e-01  4.8866069633786113e-01  4.9402060695551342e-01  4.9990516321351069e-01  4.9999180227364670e-01  4.9306825303674945e-01  4.8676212902854754e-01  4.8102863733369505e-01  4.7581588563562849e-01  4.7107901915000694e-01  4.6677575376740565e-01  4.6286804578926904e-01  4.5932175901572248e-01  4.5610658580258095e-01  4.5319575506813409e-01  4.5056571632792480e-01  4.4819580683516413e-01  4.4606794304207265e-01  4.4416632840821174e-01  4.4247721264341294e-01  4.4098863388697712e-01  4.3969031164985395e-01  4.3857337402315749e-01  4.3763034514367505e-01  4.3685493666589481e-01  4.3624182653218951e-01  4.3578682263920443e-01  4.3548659592121153e-01  4.3533870942461589e-01  4.3534164411348375e-01  4.3549464296101337e-01  4.3579779378154920e-01  4.3625195800054406e-01  4.3685882090871336e-01  4.3762090227097905e-01  4.3854155676879109e-01  4.3962512672414938e-01  4.4087682799790318e-01  4.4230291798739590e-01  4.4391075089482734e-01  4.4570887067813791e-01  4.4770712838528332e-01  4.4991682306749264e-01  4.5235085955921411e-01  4.5502393592535095e-01  4.5795276078454950e-01  4.6115629993737783e-01  4.6465605263762561e-01  4.6847634062532018e-01  4.7264462418732789e-01  4.7719170222181473e-01  4.8215215283048141e-01  4.8756353515827960e-01  4.9346908538432555e-01  4.9991083462682279e-01  4.9998797983604165e-01  4.9259098339999713e-01  4.8581177358961469e-01  4.7961168790346342e-01  4.7394365222091900e-01  4.6876723132218673e-01  4.6404350758208429e-01  4.5973690942657924e-01  4.5581493641421800e-01  4.5224823640945361e-01  4.4901045803157891e-01  4.4607807390467535e-01  4.4343016826066933e-01  4.4104822292826024e-01  4.3891588434805495e-01  4.3701881393772118e-01  4.3534443790012534e-01  4.3388199908606007e-01  4.3262200766810760e-01  4.3155643893429602e-01  4.3067856629905943e-01  4.2998259971296326e-01  4.2946420739102381e-01  4.2911963526690916e-01  4.2894625598130381e-01  4.2894236113252299e-01  4.2910708541299936e-01  4.2944044301780193e-01  4.2994333127091222e-01  4.3061762847646934e-01  4.3146591806851553e-01  4.3249194953725745e-01  4.3370019853251046e-01  4.3509636546510128e-01  4.3668704007226133e-01  4.3848011817564403e-01  4.4048461409792067e-01  4.4271092132949613e-01  4.4517088996157045e-01  4.4787795679719161e-01  4.5084730593901295e-01  4.5409604079150850e-01  4.5764337073813272e-01  4.6151081202009014e-01  4.6572238299072949e-01  4.7030481243933914e-01  4.7528761546764442e-01  4.8070344686457528e-01  4.8658713368565071e-01  4.9297868113470811e-01  4.9991572027755382e-01  4.9998478628514703e-01  4.9217151374213530e-01  4.8497569751687597e-01  4.7836348111394483e-01  4.7229156010418444e-01  4.6672315900454125e-01  4.6162229370877850e-01  4.5695572127432316e-01  4.5269265315385432e-01  4.4880491075863665e-01  4.4526686327262971e-01  4.4205534260116292e-01  4.3914951884985748e-01  4.3653075425422805e-01  4.3418245125679555e-01  4.3208999527501951e-01  4.3024050463648633e-01  4.2862271669937047e-01  4.2722677026586631e-01  4.2604456979534960e-01  4.2506890467005670e-01  4.2429375752513093e-01  4.2371425625279813e-01  4.2332645777922595e-01  4.2312755548410413e-01  4.2311568328471899e-01  4.2328991825972156e-01  4.2365027556265605e-01  4.2419771662360450e-01  4.2493413667872021e-01  4.2586238092636086e-01  4.2698617650928339e-01  4.2831046545096368e-01  4.2984098927940034e-01  4.3158478945448847e-01  4.3355011791929582e-01  4.3574625612346296e-01  4.3818405035533331e-01  4.4087568769326019e-01  4.4383491954730009e-01  4.4707718547113934e-01  4.5061973404272554e-01  4.5448176253270733e-01  4.5868455846454048e-01  4.6325162717678564e-01  4.6820882898810429e-01  4.7358437828588690e-01  4.7940916099857322e-01  4.8571565020689805e-01  4.9254123169169622e-01  4.9991998605172794e-01  4.9998207274790146e-01  4.9180188254376944e-01  4.8423841180865007e-01  4.7726165454179359e-01  4.7083129258825462e-01  4.6491358516725684e-01  4.5947506927170201e-01  4.5448461000043899e-01  4.4991307190999619e-01  4.4573351525848443e-01  4.4192117809364145e-01  4.3845344750541776e-01  4.3530980507546180e-01  4.3247173039494219e-01  4.2992267631742059e-01  4.2764791272324315e-01  4.2563432665443030e-01  4.2387076516187810e-01  4.2234724089160203e-01  4.2105512030710035e-01  4.1998684850661833e-01  4.1913617458973390e-01  4.1849802706276401e-01  4.1806832022027218e-01  4.1784409034019571e-01  4.1782336257652841e-01  4.1800516366661522e-01  4.1838949854267227e-01  4.1897734903433964e-01  4.1977066999793539e-01  4.2077240943587718e-01  4.2198650714308128e-01  4.2341797883680610e-01  4.2507284059026695e-01  4.2695832511550769e-01  4.2908280527595533e-01  4.3145589921421251e-01  4.3408875590130935e-01  4.3699367385347859e-01  4.4018460060004649e-01  4.4367705506386174e-01  4.4748825887696581e-01  4.5163723051968119e-01  4.5614488431763317e-01  4.6103410962370484e-01  4.6632986203882709e-01  4.7205911531509781e-01  4.7825116991959149e-01  4.8493647989358085e-01  4.9215028569507330e-01  4.9992374815299728e-01  4.9997973085484126e-01  4.9147579644669198e-01  4.8358760302413811e-01  4.7628827941607860e-01  4.6953990463142831e-01  4.6331126670470046e-01  4.5757105468339521e-01  4.5229000076363879e-01  4.4744050149989850e-01  4.4299683190321165e-01  4.3893514499641834e-01  4.3523349082075613e-01  4.3187180245507106e-01  4.2883187665479272e-01  4.2609736332511983e-01  4.2365359628801980e-01  4.2148797838290225e-01  4.1958890531434445e-01  4.1794612991785701e-01  4.1655081494220758e-01  4.1539532613299196e-01  4.1447324600602908e-01  4.1377930515417172e-01  4.1330932959461553e-01  4.1306023701443645e-01  4.1302998437176464e-01  4.1321755925582343e-01  4.1362295904900115e-01  4.1424718767547364e-01  4.1509225678596995e-01  4.1616119356258102e-01  4.1745805592059443e-01  4.1898796100372748e-01  4.2075711177580888e-01  4.2277286204643461e-01  4.2504369379434476e-01  4.2757933136014903e-01  4.3039104477624507e-01  4.3349128105170870e-01  4.3689402627638879e-01  4.4061476648479941e-01  4.4467057668939713e-01  4.4908019716792441e-01  4.5386409380168613e-01  4.5904450400494579e-01  4.6464549888965884e-01  4.7069290611290937e-01  4.7721462325739533e-01  4.8423937294578617e-01  4.9180062039840133e-01  4.9992709024150134e-01  4.9997767872224463e-01  4.9118817905102752e-01  4.8301329980885460e-01  4.7542875158411824e-01  4.6839856018643594e-01  4.6189363109351611e-01  4.5588448581377117e-01  4.5034349110692634e-01  4.4524443032788585e-01  4.4056271638277250e-01  4.3627540926231007e-01  4.3236126264479585e-01  4.2880076475335094e-01  4.2557616079479271e-01  4.2267153273964359e-01  4.2007280929764323e-01  4.1776696728236401e-01  4.1574240833364551e-01  4.1398891438842095e-01  4.1249751516246663e-01  4.1126049663380593e-01  4.1027133341467109e-01  4.0952466776956570e-01  4.0901626220620829e-01  4.0874296993600434e-01  4.0870270729625335e-01  4.0889443695203787e-01  4.0931815415428902e-01  4.0997488221730333e-01  4.1086667250446968e-01  4.1199661162748175e-01  4.1336883564051929e-01  4.1498855076247732e-01  4.1686205952202099e-01  4.1899679272913415e-01  4.2140134245261013e-01  4.2408550148066920e-01  4.2706037215416903e-01  4.3033853426867980e-01  4.3393396577380816e-01  4.3786201966775418e-01  4.4213957460297776e-01  4.4678503808760206e-01  4.5181839849325595e-01  4.5726124705819021e-01  4.6313682078214724e-01  4.6946990832540142e-01  4.7628717432808870e-01  4.8361585477706404e-01  4.9148793172761301e-01  4.9993007553264562e-01  4.9997585244382992e-01  4.9093487353954113e-01  4.8250731389509893e-01  4.7467102551281143e-01  4.6739163168805126e-01  4.6064181834675189e-01  4.5439366619943461e-01  4.4862096469384211e-01  4.4329872804855835e-01  4.3840340385479737e-01  4.3391292520767094e-01  4.2980677415457758e-01  4.2606606358904875e-01  4.2267372040211915e-01  4.1961451935153787e-01  4.1687413411416829e-01  4.1443977720314124e-01  4.1229991496157287e-01  4.1044431551076371e-01  4.0886400372455772e-01  4.0755124525144243e-01  4.0649949225761411e-01  4.0570335255786932e-01  4.0515855315743010e-01  4.0486191630089285e-01  4.0481133785824591e-01  4.0500577125718634e-01  4.0544521654833138e-01  4.0613071516923699e-01  4.0706434995499402e-01  4.0824925091740832e-01  4.0968960638159646e-01  4.1139067943597729e-01  4.1335882939782881e-01  4.1560153687367701e-01  4.1812743443465850e-01  4.2094633764359074e-01  4.2406937148558660e-01  4.2750874999111427e-01  4.3127851006649343e-01  4.3539390539111389e-01  4.3987154646313759e-01  4.4472949837628240e-01  4.4998728277559741e-01  4.5566587192672370e-01  4.6178773482406466e-01  4.6837672974837197e-01  4.7545844202423110e-01  4.8305882960431518e-01  4.9120862464394111e-01  4.9993275303502616e-01  4.9997420086570066e-01  4.9071243853730967e-01  4.8206285196686266e-01  4.7400507456713759e-01  4.6650605256532585e-01  4.5953997239883831e-01  4.5308024172444322e-01  4.4710188072055435e-01  4.4158097424431342e-01  4.3649492041688270e-01  4.3182250111768650e-01  4.2754387990415815e-01  4.2364096182473970e-01  4.2009760357530407e-01  4.1689842983381326e-01  4.1402952502444723e-01  4.1147820209587327e-01  4.0923304646214187e-01  4.0728391146838289e-01  4.0562189242349311e-01  4.0423928771077405e-01  4.0312956419778395e-01  4.0228733100327096e-01  4.0170831316469258e-01  4.0138933037735930e-01  4.0132827853359149e-01  4.0152411613291467e-01  4.0197685497214347e-01  4.0268755536272466e-01  4.0365832589445938e-01  4.0489232775837514e-01  4.0639378355274414e-01  4.0816799044406160e-01  4.1022133732875726e-01  4.1256132580205335e-01  4.1519659541501280e-01  4.1813695502504694e-01  4.2139341632398297e-01  4.2497820422288163e-01  4.2890478333043275e-01  4.3318855186388888e-01  4.3784574580417124e-01  4.4289422009179480e-01  4.4835300274906265e-01  4.5424249573874331e-01  4.6058447371880090e-01  4.6740196913555854e-01  4.7471962520988420e-01  4.8256230076499673e-01  4.9095966659445289e-01  4.9993516178088832e-01  4.9997268221091973e-01  4.9051800367931048e-01  4.8167423878818605e-01  4.7342250100719352e-01  4.6573084079436483e-01  4.5857471018912743e-01  4.5192864913310304e-01  4.4576873222302610e-01  4.4007197934584202e-01  4.3481666275293579e-01  4.2998229790239245e-01  4.2554980857628605e-01  4.2150230199940231e-01  4.1782356718084540e-01  4.1449868910592330e-01  4.1151396922109684e-01  4.0885692580199312e-01  4.0651632422945155e-01  4.0448215974613316e-01  4.0274562575458217e-01  4.0129908860169922e-01  4.0013606471976770e-01  3.9925119784240859e-01  3.9864023816871874e-01  3.9830002468836057e-01  3.9822847043371606e-01  3.9842455119761283e-01  3.9888829764973915e-01  3.9962079112761789e-01  4.0062416311710686e-01  4.0190159843303286e-01  4.0345734203099481e-01  4.0529670929215605e-01  4.0742609958989751e-01  4.0985301294394821e-01  4.1258606974042344e-01  4.1563503159384152e-01  4.1901082958963398e-01  4.2272555049706156e-01  4.2679262342472252e-01  4.3122657747736054e-01  4.3604403017771193e-01  4.4126236355397713e-01  4.4690018910531765e-01  4.5297742305786537e-01  4.5951521651358646e-01  4.6653587451518919e-01  4.7406322026590519e-01  4.8212116827530516e-01  4.9073848218046273e-01  4.9993733356303161e-01  4.9997126183510687e-01  4.9034916480112212e-01  4.8133671497180019e-01  4.7291624830148388e-01  4.6505674290681465e-01  4.5773471801573828e-01  4.5092567611234924e-01  4.4460657707033663e-01  4.3875527336836939e-01  4.3335088008524036e-01  4.2837346458351239e-01  4.2380523453608832e-01  4.1962951735429477e-01  4.1583047