<?xml version="1.0"?>
<VTKFile type="UnstructuredGrid"  version="0.1"  >
<UnstructuredGrid>
<Piece  NumberOfPoints="2601" NumberOfCells="5000">
<Points>
<DataArray  type="Float64"  NumberOfComponents="3"  format="ascii">0 0 0  0.02 0 0  0.04 0 0  0.06 0 0  0.08 0 0  0.1 0 0  0.12 0 0  0.14 0 0  0.16 0 0  0.18 0 0  0.2 0 0  0.22 0 0  0.24 0 0  0.26 0 0  0.28 0 0  0.3 0 0  0.32 0 0  0.34 0 0  0.36 0 0  0.38 0 0  0.4 0 0  0.42 0 0  0.44 0 0  0.46 0 0  0.48 0 0  0.5 0 0  0.52 0 0  0.54 0 0  0.5600000000000001 0 0  0.58 0 0  0.6 0 0  0.62 0 0  0.64 0 0  0.66 0 0  0.68 0 0  0.7 0 0  0.72 0 0  0.74 0 0  0.76 0 0  0.78 0 0  0.8 0 0  0.82 0 0  0.84 0 0  0.86 0 0  0.88 0 0  0.9 0 0  0.92 0 0  0.9399999999999999 0 0  0.96 0 0  0.98 0 0  1 0 0  0 0.02 0  0.02 0.02 0  0.04 0.02 0  0.06 0.02 0  0.08 0.02 0  0.1 0.02 0  0.12 0.02 0  0.14 0.02 0  0.16 0.02 0  0.18 0.02 0  0.2 0.02 0  0.22 0.02 0  0.24 0.02 0  0.26 0.02 0  0.28 0.02 0  0.3 0.02 0  0.32 0.02 0  0.34 0.02 0  0.36 0.02 0  0.38 0.02 0  0.4 0.02 0  0.42 0.02 0  0.44 0.02 0  0.46 0.02 0  0.48 0.02 0  0.5 0.02 0  0.52 0.02 0  0.54 0.02 0  0.5600000000000001 0.02 0  0.58 0.02 0  0.6 0.02 0  0.62 0.02 0  0.64 0.02 0  0.66 0.02 0  0.68 0.02 0  0.7 0.02 0  0.72 0.02 0  0.74 0.02 0  0.76 0.02 0  0.78 0.02 0  0.8 0.02 0  0.82 0.02 0  0.84 0.02 0  0.86 0.02 0  0.88 0.02 0  0.9 0.02 0  0.92 0.02 0  0.9399999999999999 0.02 0  0.96 0.02 0  0.98 0.02 0  1 0.02 0  0 0.04 0  0.02 0.04 0  0.04 0.04 0  0.06 0.04 0  0.08 0.04 0  0.1 0.04 0  0.12 0.04 0  0.14 0.04 0  0.16 0.04 0  0.18 0.04 0  0.2 0.04 0  0.22 0.04 0  0.24 0.04 0  0.26 0.04 0  0.28 0.04 0  0.3 0.04 0  0.32 0.04 0  0.34 0.04 0  0.36 0.04 0  0.38 0.04 0  0.4 0.04 0  0.42 0.04 0  0.44 0.04 0  0.46 0.04 0  0.48 0.04 0  0.5 0.04 0  0.52 0.04 0  0.54 0.04 0  0.5600000000000001 0.04 0  0.58 0.04 0  0.6 0.04 0  0.62 0.04 0  0.64 0.04 0  0.66 0.04 0  0.68 0.04 0  0.7 0.04 0  0.72 0.04 0  0.74 0.04 0  0.76 0.04 0  0.78 0.04 0  0.8 0.04 0  0.82 0.04 0  0.84 0.04 0  0.86 0.04 0  0.88 0.04 0  0.9 0.04 0  0.92 0.04 0  0.9399999999999999 0.04 0  0.96 0.04 0  0.98 0.04 0  1 0.04 0  0 0.06 0  0.02 0.06 0  0.04 0.06 0  0.06 0.06 0  0.08 0.06 0  0.1 0.06 0  0.12 0.06 0  0.14 0.06 0  0.16 0.06 0  0.18 0.06 0  0.2 0.06 0  0.22 0.06 0  0.24 0.06 0  0.26 0.06 0  0.28 0.06 0  0.3 0.06 0  0.32 0.06 0  0.34 0.06 0  0.36 0.06 0  0.38 0.06 0  0.4 0.06 0  0.42 0.06 0  0.44 0.06 0  0.46 0.06 0  0.48 0.06 0  0.5 0.06 0  0.52 0.06 0  0.54 0.06 0  0.5600000000000001 0.06 0  0.58 0.06 0  0.6 0.06 0  0.62 0.06 0  0.64 0.06 0  0.66 0.06 0  0.68 0.06 0  0.7 0.06 0  0.72 0.06 0  0.74 0.06 0  0.76 0.06 0  0.78 0.06 0  0.8 0.06 0  0.82 0.06 0  0.84 0.06 0  0.86 0.06 0  0.88 0.06 0  0.9 0.06 0  0.92 0.06 0  0.9399999999999999 0.06 0  0.96 0.06 0  0.98 0.06 0  1 0.06 0  0 0.08 0  0.02 0.08 0  0.04 0.08 0  0.06 0.08 0  0.08 0.08 0  0.1 0.08 0  0.12 0.08 0  0.14 0.08 0  0.16 0.08 0  0.18 0.08 0  0.2 0.08 0  0.22 0.08 0  0.24 0.08 0  0.26 0.08 0  0.28 0.08 0  0.3 0.08 0  0.32 0.08 0  0.34 0.08 0  0.36 0.08 0  0.38 0.08 0  0.4 0.08 0  0.42 0.08 0  0.44 0.08 0  0.46 0.08 0  0.48 0.08 0  0.5 0.08 0  0.52 0.08 0  0.54 0.08 0  0.5600000000000001 0.08 0  0.58 0.08 0  0.6 0.08 0  0.62 0.08 0  0.64 0.08 0  0.66 0.08 0  0.68 0.08 0  0.7 0.08 0  0.72 0.08 0  0.74 0.08 0  0.76 0.08 0  0.78 0.08 0  0.8 0.08 0  0.82 0.08 0  0.84 0.08 0  0.86 0.08 0  0.88 0.08 0  0.9 0.08 0  0.92 0.08 0  0.9399999999999999 0.08 0  0.96 0.08 0  0.98 0.08 0  1 0.08 0  0 0.1 0  0.02 0.1 0  0.04 0.1 0  0.06 0.1 0  0.08 0.1 0  0.1 0.1 0  0.12 0.1 0  0.14 0.1 0  0.16 0.1 0  0.18 0.1 0  0.2 0.1 0  0.22 0.1 0  0.24 0.1 0  0.26 0.1 0  0.28 0.1 0  0.3 0.1 0  0.32 0.1 0  0.34 0.1 0  0.36 0.1 0  0.38 0.1 0  0.4 0.1 0  0.42 0.1 0  0.44 0.1 0  0.46 0.1 0  0.48 0.1 0  0.5 0.1 0  0.52 0.1 0  0.54 0.1 0  0.5600000000000001 0.1 0  0.58 0.1 0  0.6 0.1 0  0.62 0.1 0  0.64 0.1 0  0.66 0.1 0  0.68 0.1 0  0.7 0.1 0  0.72 0.1 0  0.74 0.1 0  0.76 0.1 0  0.78 0.1 0  0.8 0.1 0  0.82 0.1 0  0.84 0.1 0  0.86 0.1 0  0.88 0.1 0  0.9 0.1 0  0.92 0.1 0  0.9399999999999999 0.1 0  0.96 0.1 0  0.98 0.1 0  1 0.1 0  0 0.12 0  0.02 0.12 0  0.04 0.12 0  0.06 0.12 0  0.08 0.12 0  0.1 0.12 0  0.12 0.12 0  0.14 0.12 0  0.16 0.12 0  0.18 0.12 0  0.2 0.12 0  0.22 0.12 0  0.24 0.12 0  0.26 0.12 0  0.28 0.12 0  0.3 0.12 0  0.32 0.12 0  0.34 0.12 0  0.36 0.12 0  0.38 0.12 0  0.4 0.12 0  0.42 0.12 0  0.44 0.12 0  0.46 0.12 0  0.48 0.12 0  0.5 0.12 0  0.52 0.12 0  0.54 0.12 0  0.5600000000000001 0.12 0  0.58 0.12 0  0.6 0.12 0  0.62 0.12 0  0.64 0.12 0  0.66 0.12 0  0.68 0.12 0  0.7 0.12 0  0.72 0.12 0  0.74 0.12 0  0.76 0.12 0  0.78 0.12 0  0.8 0.12 0  0.82 0.12 0  0.84 0.12 0  0.86 0.12 0  0.88 0.12 0  0.9 0.12 0  0.92 0.12 0  0.9399999999999999 0.12 0  0.96 0.12 0  0.98 0.12 0  1 0.12 0  0 0.14 0  0.02 0.14 0  0.04 0.14 0  0.06 0.14 0  0.08 0.14 0  0.1 0.14 0  0.12 0.14 0  0.14 0.14 0  0.16 0.14 0  0.18 0.14 0  0.2 0.14 0  0.22 0.14 0  0.24 0.14 0  0.26 0.14 0  0.28 0.14 0  0.3 0.14 0  0.32 0.14 0  0.34 0.14 0  0.36 0.14 0  0.38 0.14 0  0.4 0.14 0  0.42 0.14 0  0.44 0.14 0  0.46 0.14 0  0.48 0.14 0  0.5 0.14 0  0.52 0.14 0  0.54 0.14 0  0.5600000000000001 0.14 0  0.58 0.14 0  0.6 0.14 0  0.62 0.14 0  0.64 0.14 0  0.66 0.14 0  0.68 0.14 0  0.7 0.14 0  0.72 0.14 0  0.74 0.14 0  0.76 0.14 0  0.78 0.14 0  0.8 0.14 0  0.82 0.14 0  0.84 0.14 0  0.86 0.14 0  0.88 0.14 0  0.9 0.14 0  0.92 0.14 0  0.9399999999999999 0.14 0  0.96 0.14 0  0.98 0.14 0  1 0.14 0  0 0.16 0  0.02 0.16 0  0.04 0.16 0  0.06 0.16 0  0.08 0.16 0  0.1 0.16 0  0.12 0.16 0  0.14 0.16 0  0.16 0.16 0  0.18 0.16 0  0.2 0.16 0  0.22 0.16 0  0.24 0.16 0  0.26 0.16 0  0.28 0.16 0  0.3 0.16 0  0.32 0.16 0  0.34 0.16 0  0.36 0.16 0  0.38 0.16 0  0.4 0.16 0  0.42 0.16 0  0.44 0.16 0  0.46 0.16 0  0.48 0.16 0  0.5 0.16 0  0.52 0.16 0  0.54 0.16 0  0.5600000000000001 0.16 0  0.58 0.16 0  0.6 0.16 0  0.62 0.16 0  0.64 0.16 0  0.66 0.16 0  0.68 0.16 0  0.7 0.16 0  0.72 0.16 0  0.74 0.16 0  0.76 0.16 0  0.78 0.16 0  0.8 0.16 0  0.82 0.16 0  0.84 0.16 0  0.86 0.16 0  0.88 0.16 0  0.9 0.16 0  0.92 0.16 0  0.9399999999999999 0.16 0  0.96 0.16 0  0.98 0.16 0  1 0.16 0  0 0.18 0  0.02 0.18 0  0.04 0.18 0  0.06 0.18 0  0.08 0.18 0  0.1 0.18 0  0.12 0.18 0  0.14 0.18 0  0.16 0.18 0  0.18 0.18 0  0.2 0.18 0  0.22 0.18 0  0.24 0.18 0  0.26 0.18 0  0.28 0.18 0  0.3 0.18 0  0.32 0.18 0  0.34 0.18 0  0.36 0.18 0  0.38 0.18 0  0.4 0.18 0  0.42 0.18 0  0.44 0.18 0  0.46 0.18 0  0.48 0.18 0  0.5 0.18 0  0.52 0.18 0  0.54 0.18 0  0.5600000000000001 0.18 0  0.58 0.18 0  0.6 0.18 0  0.62 0.18 0  0.64 0.18 0  0.66 0.18 0  0.68 0.18 0  0.7 0.18 0  0.72 0.18 0  0.74 0.18 0  0.76 0.18 0  0.78 0.18 0  0.8 0.18 0  0.82 0.18 0  0.84 0.18 0  0.86 0.18 0  0.88 0.18 0  0.9 0.18 0  0.92 0.18 0  0.9399999999999999 0.18 0  0.96 0.18 0  0.98 0.18 0  1 0.18 0  0 0.2 0  0.02 0.2 0  0.04 0.2 0  0.06 0.2 0  0.08 0.2 0  0.1 0.2 0  0.12 0.2 0  0.14 0.2 0  0.16 0.2 0  0.18 0.2 0  0.2 0.2 0  0.22 0.2 0  0.24 0.2 0  0.26 0.2 0  0.28 0.2 0  0.3 0.2 0  0.32 0.2 0  0.34 0.2 0  0.36 0.2 0  0.38 0.2 0  0.4 0.2 0  0.42 0.2 0  0.44 0.2 0  0.46 0.2 0  0.48 0.2 0  0.5 0.2 0  0.52 0.2 0  0.54 0.2 0  0.5600000000000001 0.2 0  0.58 0.2 0  0.6 0.2 0  0.62 0.2 0  0.64 0.2 0  0.66 0.2 0  0.68 0.2 0  0.7 0.2 0  0.72 0.2 0  0.74 0.2 0  0.76 0.2 0  0.78 0.2 0  0.8 0.2 0  0.82 0.2 0  0.84 0.2 0  0.86 0.2 0  0.88 0.2 0  0.9 0.2 0  0.92 0.2 0  0.9399999999999999 0.2 0  0.96 0.2 0  0.98 0.2 0  1 0.2 0  0 0.22 0  0.02 0.22 0  0.04 0.22 0  0.06 0.22 0  0.08 0.22 0  0.1 0.22 0  0.12 0.22 0  0.14 0.22 0  0.16 0.22 0  0.18 0.22 0  0.2 0.22 0  0.22 0.22 0  0.24 0.22 0  0.26 0.22 0  0.28 0.22 0  0.3 0.22 0  0.32 0.22 0  0.34 0.22 0  0.36 0.22 0  0.38 0.22 0  0.4 0.22 0  0.42 0.22 0  0.44 0.22 0  0.46 0.22 0  0.48 0.22 0  0.5 0.22 0  0.52 0.22 0  0.54 0.22 0  0.5600000000000001 0.22 0  0.58 0.22 0  0.6 0.22 0  0.62 0.22 0  0.64 0.22 0  0.66 0.22 0  0.68 0.22 0  0.7 0.22 0  0.72 0.22 0  0.74 0.22 0  0.76 0.22 0  0.78 0.22 0  0.8 0.22 0  0.82 0.22 0  0.84 0.22 0  0.86 0.22 0  0.88 0.22 0  0.9 0.22 0  0.92 0.22 0  0.9399999999999999 0.22 0  0.96 0.22 0  0.98 0.22 0  1 0.22 0  0 0.24 0  0.02 0.24 0  0.04 0.24 0  0.06 0.24 0  0.08 0.24 0  0.1 0.24 0  0.12 0.24 0  0.14 0.24 0  0.16 0.24 0  0.18 0.24 0  0.2 0.24 0  0.22 0.24 0  0.24 0.24 0  0.26 0.24 0  0.28 0.24 0  0.3 0.24 0  0.32 0.24 0  0.34 0.24 0  0.36 0.24 0  0.38 0.24 0  0.4 0.24 0  0.42 0.24 0  0.44 0.24 0  0.46 0.24 0  0.48 0.24 0  0.5 0.24 0  0.52 0.24 0  0.54 0.24 0  0.5600000000000001 0.24 0  0.58 0.24 0  0.6 0.24 0  0.62 0.24 0  0.64 0.24 0  0.66 0.24 0  0.68 0.24 0  0.7 0.24 0  0.72 0.24 0  0.74 0.24 0  0.76 0.24 0  0.78 0.24 0  0.8 0.24 0  0.82 0.24 0  0.84 0.24 0  0.86 0.24 0  0.88 0.24 0  0.9 0.24 0  0.92 0.24 0  0.9399999999999999 0.24 0  0.96 0.24 0  0.98 0.24 0  1 0.24 0  0 0.26 0  0.02 0.26 0  0.04 0.26 0  0.06 0.26 0  0.08 0.26 0  0.1 0.26 0  0.12 0.26 0  0.14 0.26 0  0.16 0.26 0  0.18 0.26 0  0.2 0.26 0  0.22 0.26 0  0.24 0.26 0  0.26 0.26 0  0.28 0.26 0  0.3 0.26 0  0.32 0.26 0  0.34 0.26 0  0.36 0.26 0  0.38 0.26 0  0.4 0.26 0  0.42 0.26 0  0.44 0.26 0  0.46 0.26 0  0.48 0.26 0  0.5 0.26 0  0.52 0.26 0  0.54 0.26 0  0.5600000000000001 0.26 0  0.58 0.26 0  0.6 0.26 0  0.62 0.26 0  0.64 0.26 0  0.66 0.26 0  0.68 0.26 0  0.7 0.26 0  0.72 0.26 0  0.74 0.26 0  0.76 0.26 0  0.78 0.26 0  0.8 0.26 0  0.82 0.26 0  0.84 0.26 0  0.86 0.26 0  0.88 0.26 0  0.9 0.26 0  0.92 0.26 0  0.9399999999999999 0.26 0  0.96 0.26 0  0.98 0.26 0  1 0.26 0  0 0.28 0  0.02 0.28 0  0.04 0.28 0  0.06 0.28 0  0.08 0.28 0  0.1 0.28 0  0.12 0.28 0  0.14 0.28 0  0.16 0.28 0  0.18 0.28 0  0.2 0.28 0  0.22 0.28 0  0.24 0.28 0  0.26 0.28 0  0.28 0.28 0  0.3 0.28 0  0.32 0.28 0  0.34 0.28 0  0.36 0.28 0  0.38 0.28 0  0.4 0.28 0  0.42 0.28 0  0.44 0.28 0  0.46 0.28 0  0.48 0.28 0  0.5 0.28 0  0.52 0.28 0  0.54 0.28 0  0.5600000000000001 0.28 0  0.58 0.28 0  0.6 0.28 0  0.62 0.28 0  0.64 0.28 0  0.66 0.28 0  0.68 0.28 0  0.7 0.28 0  0.72 0.28 0  0.74 0.28 0  0.76 0.28 0  0.78 0.28 0  0.8 0.28 0  0.82 0.28 0  0.84 0.28 0  0.86 0.28
[...]
<PointData  Scalars="f_1200095"> 
<DataArray  type="Float64"  Name="f_1200095"  format="ascii">9.8857580155413260e-01  9.8857542314948399e-01  9.8857425810437782e-01  9.8857225232360257e-01  9.8856946188520067e-01  9.8856596315503964e-01  9.8856184567138861e-01  9.8855720538324510e-01  9.8855214055583385e-01  9.8854674922887775e-01  9.8854112746006784e-01  9.8853536810041320e-01  9.8852955992487912e-01  9.8852378701186949e-01  9.8851812830180741e-01  9.8851265728686810e-01  9.8850744179781558e-01  9.8850254386301628e-01  9.8849801962089490e-01  9.8849391927140962e-01  9.8849028705525321e-01  9.8848716125184222e-01  9.8848457418888769e-01  9.8848255225779136e-01  9.8848111593031285e-01  9.8848027977272945e-01  9.8848005245456105e-01  9.8848043674941377e-01  9.8848142952596463e-01  9.8848302172732405e-01  9.8848519833720760e-01  9.8848793833156268e-01  9.8849121461441947e-01  9.8849499393711615e-01  9.8849923680050389e-01  9.8850389734039834e-01  9.8850892319745554e-01  9.8851425537364090e-01  9.8851982807883154e-01  9.8852556857233809e-01  9.8853139700661552e-01  9.8853722627995833e-01  9.8854296191654067e-01  9.8854850196189825e-01  9.8855373700325266e-01  9.8855854998853743e-01  9.8856281709966864e-01  9.8856640522346262e-01  9.8856917956762513e-01  9.8857098873258809e-01  9.8857161353098910e-01  9.8857422710611986e-01  9.8857430632022425e-01  9.8857360613779910e-01  9.8857208178846689e-01  9.8856976969013721e-01  9.8856673125968875e-01  9.8856304866186118e-01  9.8855881306424676e-01  9.8855411995712328e-01  9.8854906587745639e-01  9.8854374624172270e-01  9.8853825385763405e-01  9.8853267787586208e-01  9.8852710304608393e-01  9.8852160918807430e-01  9.8851627081842286e-01  9.8851115689142688e-01  9.8850633062444526e-01  9.8850184938562902e-01  9.8849776462738848e-01  9.8849412185269780e-01  9.8849096060409380e-01  9.8848831446732843e-01  9.8848621108342893e-01  9.8848467216409930e-01  9.8848371350645214e-01  9.8848334500398516e-01  9.8848357065123760e-01  9.8848438854008169e-01  9.8848579084592669e-01  9.8848776380241388e-01  9.8849028766330693e-01  9.8849333665054184e-01  9.8849687888787363e-01  9.8850087632009309e-01  9.8850528461866782e-01  9.8851005307570372e-01  9.8851512448956369e-01  9.8852043504721621e-01  9.8852591421054981e-01  9.8853148461707252e-01  9.8853706200842073e-01  9.8854255520945244e-01  9.8854786617594370e-01  9.8855289019039516e-01  9.8855751613717568e-01  9.8856162745157572e-01  9.8856510207941517e-01  9.8856781946487915e-01  9.8856964490609023e-01  9.8857051923375860e-01  9.8857012406294453e-01  9.8857076933350407e-01  9.8857089964002853e-01  9.8857034374389452e-01  9.8856904864028372e-01  9.8856703186118844e-01  9.8856434822514505e-01  9.8856107159108342e-01  9.8855728646949281e-01  9.8855308234799666e-01  9.8854855022986643e-01  9.8854378030734846e-01  9.8853886036915728e-01  9.8853387468805853e-01  9.8852890323558174e-01  9.8852402112652360e-01  9.8851929822833018e-01  9.8851479889045402e-01  9.8851058176159690e-01  9.8850669967150129e-01  9.8850319955951260e-01  9.8850012243642427e-01  9.8849750336950437e-01  9.8849537148258204e-01  9.8849374996503270e-01  9.8849265608516634e-01  9.8849210120425712e-01  9.8849209078835543e-01  9.8849262441605446e-01  9.8849369578069213e-01  9.8849529268568059e-01  9.8849739703218453e-01  9.8849998479892354e-01  9.8850302601443585e-01  9.8850648472308811e-01  9.8851031894761210e-01  9.8851448065280478e-01  9.8851891571756656e-01  9.8852356392574348e-01  9.8852835899088487e-01  9.8853322863703552e-01  9.8853809476621846e-01  9.8854287376454397e-01  9.8854747700536794e-01  9.8855181172653661e-01  9.8855578228432395e-01  9.8855929290194877e-01  9.8856225013463106e-01  9.8856457568856781e-01  9.8856620342963042e-01  9.8856717839007546e-01  9.8856384411538534e-01  9.8856505777148740e-01  9.8856615859066121e-01  9.8856682146615749e-01  9.8856687960721956e-01  9.8856627434484934e-01  9.8856500830195415e-01  9.8856312110159972e-01  9.8856067423756633e-01  9.8855774165122046e-01  9.8855440387328875e-01  9.8855074412716537e-01  9.8854684570218565e-01  9.8854279013422330e-01  9.8853865592739987e-01  9.8853451764787492e-01  9.8853044527986322e-01  9.8852650376952644e-01  9.8852275270566159e-01  9.8851924610030661e-01  9.8851603224232842e-01  9.8851315360532166e-01  9.8851064679376111e-01  9.8850854251622877e-01  9.8850686557888723e-01  9.8850563489209475e-01  9.8850486348533695e-01  9.8850455852803276e-01  9.8850472135412493e-01  9.8850534748797059e-01  9.8850642667175159e-01  9.8850794289482524e-01  9.8850987442518468e-01  9.8851219384509992e-01  9.8851486809457700e-01  9.8851785852900709e-01  9.8852112100009060e-01  9.8852460597349068e-01  9.8852825870311056e-01  9.8853201948994174e-01  9.8853582406640583e-01  9.8853960416480779e-01  9.8854328836388483e-01  9.8854680333854195e-01  9.8855007579318133e-01  9.8855303525701410e-01  9.8855561914598777e-01  9.8855777858663629e-01  9.8855949711499358e-01  9.8856079054988344e-01  9.8856181988587766e-01  9.8855572507446920e-01  9.8855747450443743e-01  9.8855957182772281e-01  9.8856155751967423e-01  9.8856314949741286e-01  9.8856419599644840e-01  9.8856463048681398e-01  9.8856444282252609e-01  9.8856365882559960e-01  9.8856232708946756e-01  9.8856051016937008e-01  9.8855827862203138e-01  9.8855570691986372e-01  9.8855287059411401e-01  9.8854984421295944e-01  9.8854669993583011e-01  9.8854350647322009e-01  9.8854032833730343e-01  9.8853722530452282e-01  9.8853425203170220e-01  9.8853145778861629e-01  9.8852888627586954e-01  9.8852657550203127e-01  9.8852455771246206e-01  9.8852285935255790e-01  9.8852150105734993e-01  9.8852049766452721e-01  9.8851985824373234e-01  9.8851958613963209e-01  9.8851967902739923e-01  9.8852012898519259e-01  9.8852092257899116e-01  9.8852204096414287e-01  9.8852346000840896e-01  9.8852515044340961e-01  9.8852707805476780e-01  9.8852920392498222e-01  9.8853148475328390e-01  9.8853387328254327e-01  9.8853631887786497e-01  9.8853876832047682e-01  9.8854116690730554e-01  9.8854345999547144e-01  9.8854559517999108e-01  9.8854752547554892e-01  9.8854921378546212e-01  9.8855064020909822e-01  9.8855181059451258e-01  9.8855277847332934e-01  9.8855364514783706e-01  9.8855467607692771e-01  9.8854608946371214e-01  9.8854832827254313e-01  9.8855139757625143e-01  9.8855472418651702e-01  9.8855792034097945e-01  9.8856074015673223e-01  9.8856304053616262e-01  9.8856475131890587e-01  9.8856585259382057e-01  9.8856635864862730e-01  9.8856630653043609e-01  9.8856574798717911e-01  9.8856474374540548e-01  9.8856335941546636e-01  9.8856166253800126e-01  9.8855972043668094e-01  9.8855759864862192e-01  9.8855535977711206e-01  9.8855306264953713e-01  9.8855076170203682e-01  9.8854850653949289e-01  9.8854634161114752e-01  9.8854430600017107e-01  9.8854243328288638e-01  9.8854075143019482e-01  9.8853928278298964e-01  9.8853804404979506e-01  9.8853704633852402e-01  9.8853629522168618e-01  9.8853579083543175e-01  9.8853552799548172e-01  9.8853549634958826e-01  9.8853568057264363e-01  9.8853606059566534e-01  9.8853661189699293e-01  9.8853730585060728e-01  9.8853811017631366e-01  9.8853898950772456e-01  9.8853990612730913e-01  9.8854082092984197e-01  9.8854169469866693e-01  9.8854248981400905e-01  9.8854317256829349e-01  9.8854371631892857e-01  9.8854410589347663e-01  9.8854434354988174e-01  9.8854445802090030e-01  9.8854451472546789e-01  9.8854463911832036e-01  9.8854501502579173e-01  9.8854600199042875e-01  9.8853524349678179e-01  9.8853791991867845e-01  9.8854191026611415e-01  9.8854654551448351e-01  9.8855134525676958e-01  9.8855597532794937e-01  9.8856021562598118e-01  9.8856393163045586e-01  9.8856705151831947e-01  9.8856954860058455e-01  9.8857142808115961e-01  9.8857271724985285e-01  9.8857345823503762e-01  9.8857370265412026e-01  9.8857350765175023e-01  9.8857293295932469e-01  9.8857203870779031e-01  9.8857088379535363e-01  9.8856952465876857e-01  9.8856801438068076e-01  9.8856640200390256e-01  9.8856473203297601e-01  9.8856304415075258e-01  9.8856137286766277e-01  9.8855974745174613e-01  9.8855819181466376e-01  9.8855672450139698e-01  9.8855535872240397e-01  9.8855410246068820e-01  9.8855295859947689e-01  9.8855192503075873e-01  9.8855099500875232e-01  9.8855015734176199e-01  9.8854939682240039e-01  9.8854869461217310e-01  9.8854802882962567e-01  9.8854737521542169e-01  9.8854670798199573e-01  9.8854600089777778e-01  9.8854522867057626e-01  9.8854436873892826e-01  9.8854340360860204e-01  9.8854232392890806e-01  9.8854113255400489e-01  9.8853985000267941e-01  9.8853852157319810e-01  9.8853722753133499e-01  9.8853609411682519e-01  9.8853531715792575e-01  9.8853515819410565e-01  9.8853606230644531e-01  9.8852347467550927e-01  9.8852653532198753e-01  9.8853138195544410e-01  9.8853726437938927e-01  9.8854362201200585e-01  9.8855004075454778e-01  9.8855622731317461e-01  9.8856198283211627e-01  9.8856718102717467e-01  9.8857175027955979e-01  9.8857565945167736e-01  9.8857890687013961e-01  9.8858151185906284e-01  9.8858350827452601e-01  9.8858493958449856e-01  9.8858585513459574e-01  9.8858630729266772e-01  9.8858634927477673e-01  9.8858603350094210e-01  9.8858541039715753e-01  9.8858452737239577e-01  9.8858342819606604e-01  9.8858215237889413e-01  9.8858073491220122e-01  9.8857920599439530e-01  9.8857759085788632e-01  9.8857590977946230e-01  9.8857417807763703e-01  9.8857240623809495e-01  9.8857060006399744e-01  9.8856876092699675e-01  9.8856688605808307e-01  9.8856496910309810e-01  9.8856300032250310e-01  9.8856096751975997e-01  9.8855885663675425e-01  9.8855665269194026e-01  9.8855434097320294e-01  9.8855190845917607e-01  9.8854934563556007e-01  9.8854664879742316e-01  9.8854382298395682e-01  9.8854088574646448e-01  9.8853787198536514e-01  9.8853484023803539e-01  9.8853188059771757e-01  9.8852912555174388e-01  9.8852676120781247e-01  9.8852505059604778e-01  9.8852432769113807e-01  9.8852511520360431e-01  9.8851105038455844e-01  9.8851444233546060e-01  9.8852007356582450e-01  9.8852712471010917e-01  9.8853496609126679e-01  9.8854311252661808e-01  9.8855120329427859e-01  9.8855897791991809e-01  9.8856625589257063e-01  9.8857291915470247e-01  9.8857889766253570e-01  9.8858415769825492e-01  9.8858869255695403e-01  9.8859251521111913e-01  9.8859565257547211e-01  9.8859814100540466e-01  9.8860002278787762e-01  9.8860134353441664e-01  9.8860215003415242e-01  9.8860248856921307e-01  9.8860240380929254e-01  9.8860193773456972e-01  9.8860112899627206e-01  9.8860001247765095e-01  9.8859861876621491e-01  9.8859697412480563e-01  9.8859510033956433e-01  9.8859301474220374e-01  9.8859073033202938e-01  9.8858825599280231e-01  9.8858559680543479e-01  9.8858275449621846e-01  9.8857972782478631e-01  9.8857651331506102e-01  9.8857310627294659e-01  9.8856950123023868e-01  9.8856569366585068e-01  9.8856168119424070e-01  9.8855746541422285e-01  9.8855305415113803e-01  9.8854846422489528e-01  9.8854372492394471e-01  9.8853888236366327e-01  9.8853400494357246e-01  9.8852919023977104e-01  9.8852457343196976e-01  9.8852033843775866e-01  9.8851672902447951e-01  9.8851407154330651e-01  9.8851276710904401e-01  9.8851340915196217e-01  9.8849821734745702e-01  9.8850188931878247e-01  9.8850823055005677e-01  9.8851636245979679e-01  9.8852559587898114e-01  9.8853538298285837e-01  9.8854530206190183e-01  9.8855503521866817e-01  9.8856434980876418e-01  9.8857308171749925e-01  9.8858112113070717e-01  9.8858840061194697e-01  9.8859488531523132e-01  9.8860056504075866e-01  9.8860544780725057e-01  9.8860955473669199e-01  9.8861291615700964e-01  9.8861556820447594e-01  9.8861755035893495e-01  9.8861890347640646e-01  9.8861966826065684e-01  9.8861988392510192e-01  9.8861958744388490e-01  9.8861881275546581e-01  9.8861759040684671e-01  9.8861594725167534e-01  9.8861390629265800e-01  9.8861148671478905e-01  9.8860870400462031e-01  9.8860557019751194e-01  9.8860209426794532e-01  9.8859828260147709e-01  9.8859413961053011e-01  9.8858966870543008e-01  9.8858487297092956e-01  9.8857975655808850e-01  9.8857432626167385e-01  9.8856859290848009e-01  9.8856257381959567e-01  9.8855629527156608e-01  9.8854979572607315e-01  9.8854312976358982e-01  9.8853637292062069e-01  9.8852962761853935e-01  9.8852303046958490e-01  9.8851676098859942e-01  9.8851105279107043e-01  9.8850620441625159e-01  9.8850260140176238e-01  9.8850070692598035e-01  9.8850117891253420e-01  9.8848520166887144e-01  9.8848910467463980e-01  9.8849608086007157e-01  9.8850520079744286e-01  9.8851572410739441e-01  9.8852704805793923e-01  9.8853869641592562e-01  9.8855029873026212e-01  9.8856157343387574e-01  9.8857231206184859e-01  9.8858236550436784e-01  9.8859163218012369e-01  9.8860004804974522e-01  9.8860757823308754e-01  9.8861421023637230e-01  9.8861994841233902e-01  9.8862480930046537e-01  9.8862881806907166e-01  9.8863200557045472e-01  9.8863440591524765e-01  9.8863605460655657e-01  9.8863698712626069e-01  9.8863723781090973e-01  9.8863683905528810e-01  9.8863582073244982e-01  9.8863420981620587e-01  9.8863203020984769e-01  9.8862930272242189e-01  9.8862604520048636e-01  9.8862227281714499e-01  9.8861799850560228e-01  9.8861323349738173e-01  9.8860798824228213e-01  9.8860227310911819e-01  9.8859609968106377e-01  9.8858948230455213e-01  9.8858243939256962e-01  9.8857499590884357e-01  9.8856718551723510e-01  9.8855905360292529e-01  9.8855066087049837e-01  9.8854208762365980e-01  9.8853343898865365e-01  9.8852485118422728e-01  9.8851649909194472e-01  9.8850860509537997e-01  9.8850145019969515e-01  9.8849538448843988e-01  9.8849084852962077e-01  9.8848836276256580e-01  9.8848864398956882e-01  9.8847220927912893e-01  9.8847629698995865e-01  9.8848383415092045e-01  9.8849384762607384e-01  9.8850555299366427e-01  9.8851829958523729e-01  9.8853156282007859e-01  9.8854492476422784e-01  9.8855805873740910e-01  9.8857071448700606e-01  9.8858270507920654e-01  9.8859389534654496e-01  9.8860419183389459e-01  9.8861353443269195e-01  9.8862188926517081e-01  9.8862924262050556e-01  9.8863559617566410e-01  9.8864096299137671e-01  9.8864536395411240e-01  9.8864882522060682e-01  9.8865137612788523e-01  9.8865304745360350e-01  9.8865387012637418e-01  9.8865387426396023e-01  9.8865308846861299e-01  9.8865153936898864e-01  9.8864925137726234e-01  9.8864624663869494e-01  9.8864254516842354e-01  9.8863816516331160e-01  9.8863312348800925e-01  9.8862743636274175e-01  9.8862112020542114e-01  9.8861419274637041e-01  9.8860667434858818e-01  9.8859858952693880e-01  9.8858996909916297e-01  9.8858085231038195e-01  9.8857128939179006e-01  9.8856134520784933e-01  9.8855110280081615e-01  9.8854066810474472e-01  9.8853017543838695e-01  9.8851979401444412e-01  9.8850973566289435e-01  9.8850026369344601e-01  9.8849170385580576e-01  9.8848445440845145e-01  9.8847900688422541e-01  9.8847593447068349e-01  9.8847600773655231e-01  9.8845942663617625e-01  9.8846365554818194e-01  9.8847168170910760e-01  9.8848249444357006e-01  9.8849527153515904e-01  9.8850932062883479e-01  9.8852407456134939e-01  9.8853907292613452e-01  9.8855394799662777e-01  9.8856841081889346e-01  9.8858223878297213e-01  9.8859526435363609e-01  9.8860736537728822e-01  9.8861845661429448e-01  9.8862848236618583e-01  9.8863741046695697e-01  9.8864522700925983e-01  9.8865193177348698e-01  9.8865753482880603e-01  9.8866205353966352e-01  9.8866551014798276e-01  9.8866792991254249e-01  9.8866933962262937e-01  9.8866976646334392e-01  9.8866923719404376e-01  9.8866777759973112e-01  9.8866541218648307e-01  9.8866216410233720e-01  9.8865805526949113e-01  9.8865310672092377e-01  9.8864733914304559e-01  9.8864077362515179e-01  9.8863343263740378e-01  9.8862534124560197e-01  9.8861652858769722e-01  9.8860702966967073e-01  9.8859688758677877e-01  9.8858615577005837e-01  9.8857490127485281e-01  9.8856320821503230e-01  9.8855118166360734e-01  9.8853895266176173e-01  9.8852668387695219e-01  9.8851457627283201e-01  9.8850287691393923e-01  9.8849188778526986e-01  9.8848197655241454e-01  9.8847358625152237e-01  9.8846725545767822e-01  9.8846360587231885e-01  9.8846345714837547e-01  9.8844702158253828e-01  9.8845135106527693e-01  9.8845979681052953e-01  9.8847131600082616e-01  9.8848505411780518e-01  9.8850028272786461e-01  9.8851639740965724e-01  9.8853290009624117e-01  9.8854938614098764e-01  9.8856553125993230e-01  9.8858107967533737e-01  9.8859583338327406e-01  9.8860964277711882e-01  9.8862239804735785e-01  9.8863402212855878e-01  9.8864446423895502e-01  9.8865369423500871e-01  9.8866169834112583e-01  9.8866847514660405e-01  9.8867403248054653e-01  9.8867838484708459e-01  9.8868155133256175e-01  9.8868355394671947e-01  9.8868441635111415e-01  9.8868416292361005e-01  9.8868281812237413e-01  9.8868040612265495e-01  9.8867695070556827e-01  9.8867247538505487e-01  9.8866700376608430e-01  9.8866056013279369e-01  9.8865317027268684e-01  9.8864486254774675e-01  9.8863566923064083e-01  9.8862562813374244e-01  9.8861478456677365e-01  9.8860319363047555e-01  9.8859092294680062e-01  9.8857805600639082e-01  9.8856469552580017e-01  9.8855096806206255e-01  9.8853702891990647e-01  9.8852306788853839e-01  9.8850931611495341e-01  9.8849605391179296e-01  9.8848361949518104e-01  9.8847241953162046e-01  9.8846293847399214e-01  9.8845575818024678e-01  9.8845154489035036e-01  9.8845116302666125e-01  9.8843514428443047e-01  9.8843953655109962e-01  9.8844833533098941e-01  9.8846047044194285e-01  9.8847505993779738e-01  9.8849134435887953e-01  9.8850868692291738e-01  9.8852655646157439e-01  9.8854451548603461e-01  9.8856220781927917e-01  9.8857934733180564e-01  9.8859570789053608e-01  9.8861111390931566e-01  9.8862543237723954e-01  9.8863856545893014e-01  9.8865044380396050e-01  9.8866102136879541e-01  9.8867027048644707e-01  9.8867817794145407e-01  9.8868474165810460e-01  9.8868996792690500e-01  9.8869386915211976e-01  9.8869646205382544e-01  9.8869776626963723e-01  9.8869780331469093e-01  9.8869659586629643e-01  9.8869416734566018e-01  9.8869054177607874e-01  9.8868574390389885e-01  9.8867979957470908e-01  9.8867273636352104e-01  9.8866458446367012e-01  9.8865537784545843e-01  9.8864515570201661e-01  9.8863396420618166e-01  9.8862185860798146e-01  9.8860890571209348e-01  9.8859518679513769e-01  9.8858080095192979e-01  9.8856586900921306e-01  9.8855053809097770e-01  9.8853498645803961e-01  9.8851942959639960e-01  9.8850412704427582e-01  9.8848939017964388e-01  9.8847559089227377e-01  9.8846317190841693e-01  9.8845265580753416e-01  9.8844466413770748e-01  9.8843990393835146e-01  9.8843928040379148e-01  9.8842392820094505e-01  9.8842834822924719e-01  9.8843743649702109e-01  9.8845009973293885e-01  9.8846543293063038e-01  9.8848265018220616e-01  9.8850108685019800e-01  9.8852018296469657e-01  9.8853947212419635e-01  9.8855856967609879e-01  9.8857716228720283e-01  9.8859499796453376e-01  9.8861187728837607e-01  9.8862764549011539e-01  9.8864218471637655e-01  9.8865540803622676e-01  9.8866725367322683e-01  9.8867768026248060e-01  9.8868666278381090e-01  9.8869418907748108e-01  9.8870025694958041e-01  9.8870487179188193e-01  9.8870804465995277e-01  9.8870979076697318e-01  9.8871012835447514e-01  9.8870907790699858e-01  9.8870666168448962e-01  9.8870290355279777e-01  9.8869782909875270e-01  9.8869146602231539e-01  9.8868384480416860e-01  9.8867499965306271e-01  9.8866496974303775e-01  9.8865380075657638e-01  9.8864154675585125e-01  9.8862827241068507e-01  9.8861405561706950e-01  9.8859899055204181e-01  9.8858319117494398e-01  9.8856679538968983e-01  9.8854996958090968e-01  9.8853291363212514e-01  9.8851586718670958e-01  9.8849911608027830e-01  9.8848300047913806e-01  9.8846792332397737e-01  9.8845436046978064e-01  9.8844286941995740e-01  9.8843410798092235e-01  9.8842882046582592e-01  9.8842794911861143e-01  9.8841349104603704e-01  9.8841790646885941e-01  9.8842722370317015e-01  9.8844033025583433e-01  9.8845630201251666e-01  9.8847433079259839e-01  9.8849372826601178e-01  9.8851390969872066e-01  9.8853438351007838e-01  9.8855474011220512e-01  9.8857464187203370e-01  9.8859381363569776e-01  9.8861203442117918e-01  9.8862912