<?xml version="1.0"?>
<VTKFile type="UnstructuredGrid"  version="0.1"  >
<UnstructuredGrid>
<Piece  NumberOfPoints="2601" NumberOfCells="5000">
<Points>
<DataArray  type="Float64"  NumberOfComponents="3"  format="ascii">0 0 0  0.2 0 0  0.4 0 0  0.6 0 0  0.8 0 0  1 0 0  1.2 0 0  1.4 0 0  1.6 0 0  1.8 0 0  2 0 0  2.2 0 0  2.4 0 0  2.6 0 0  2.8 0 0  3 0 0  3.2 0 0  3.4 0 0  3.6 0 0  3.8 0 0  4 0 0  4.2 0 0  4.4 0 0  4.6 0 0  4.8 0 0  5 0 0  5.2 0 0  5.4 0 0  5.6 0 0  5.8 0 0  6 0 0  6.2 0 0  6.4 0 0  6.6 0 0  6.8 0 0  7 0 0  7.2 0 0  7.4 0 0  7.6 0 0  7.8 0 0  8 0 0  8.199999999999999 0 0  8.4 0 0  8.6 0 0  8.800000000000001 0 0  9 0 0  9.199999999999999 0 0  9.4 0 0  9.6 0 0  9.800000000000001 0 0  10 0 0  0 0.2 0  0.2 0.2 0  0.4 0.2 0  0.6 0.2 0  0.8 0.2 0  1 0.2 0  1.2 0.2 0  1.4 0.2 0  1.6 0.2 0  1.8 0.2 0  2 0.2 0  2.2 0.2 0  2.4 0.2 0  2.6 0.2 0  2.8 0.2 0  3 0.2 0  3.2 0.2 0  3.4 0.2 0  3.6 0.2 0  3.8 0.2 0  4 0.2 0  4.2 0.2 0  4.4 0.2 0  4.6 0.2 0  4.8 0.2 0  5 0.2 0  5.2 0.2 0  5.4 0.2 0  5.6 0.2 0  5.8 0.2 0  6 0.2 0  6.2 0.2 0  6.4 0.2 0  6.6 0.2 0  6.8 0.2 0  7 0.2 0  7.2 0.2 0  7.4 0.2 0  7.6 0.2 0  7.8 0.2 0  8 0.2 0  8.199999999999999 0.2 0  8.4 0.2 0  8.6 0.2 0  8.800000000000001 0.2 0  9 0.2 0  9.199999999999999 0.2 0  9.4 0.2 0  9.6 0.2 0  9.800000000000001 0.2 0  10 0.2 0  0 0.4 0  0.2 0.4 0  0.4 0.4 0  0.6 0.4 0  0.8 0.4 0  1 0.4 0  1.2 0.4 0  1.4 0.4 0  1.6 0.4 0  1.8 0.4 0  2 0.4 0  2.2 0.4 0  2.4 0.4 0  2.6 0.4 0  2.8 0.4 0  3 0.4 0  3.2 0.4 0  3.4 0.4 0  3.6 0.4 0  3.8 0.4 0  4 0.4 0  4.2 0.4 0  4.4 0.4 0  4.6 0.4 0  4.8 0.4 0  5 0.4 0  5.2 0.4 0  5.4 0.4 0  5.6 0.4 0  5.8 0.4 0  6 0.4 0  6.2 0.4 0  6.4 0.4 0  6.6 0.4 0  6.8 0.4 0  7 0.4 0  7.2 0.4 0  7.4 0.4 0  7.6 0.4 0  7.8 0.4 0  8 0.4 0  8.199999999999999 0.4 0  8.4 0.4 0  8.6 0.4 0  8.800000000000001 0.4 0  9 0.4 0  9.199999999999999 0.4 0  9.4 0.4 0  9.6 0.4 0  9.800000000000001 0.4 0  10 0.4 0  0 0.6 0  0.2 0.6 0  0.4 0.6 0  0.6 0.6 0  0.8 0.6 0  1 0.6 0  1.2 0.6 0  1.4 0.6 0  1.6 0.6 0  1.8 0.6 0  2 0.6 0  2.2 0.6 0  2.4 0.6 0  2.6 0.6 0  2.8 0.6 0  3 0.6 0  3.2 0.6 0  3.4 0.6 0  3.6 0.6 0  3.8 0.6 0  4 0.6 0  4.2 0.6 0  4.4 0.6 0  4.6 0.6 0  4.8 0.6 0  5 0.6 0  5.2 0.6 0  5.4 0.6 0  5.6 0.6 0  5.8 0.6 0  6 0.6 0  6.2 0.6 0  6.4 0.6 0  6.6 0.6 0  6.8 0.6 0  7 0.6 0  7.2 0.6 0  7.4 0.6 0  7.6 0.6 0  7.8 0.6 0  8 0.6 0  8.199999999999999 0.6 0  8.4 0.6 0  8.6 0.6 0  8.800000000000001 0.6 0  9 0.6 0  9.199999999999999 0.6 0  9.4 0.6 0  9.6 0.6 0  9.800000000000001 0.6 0  10 0.6 0  0 0.8 0  0.2 0.8 0  0.4 0.8 0  0.6 0.8 0  0.8 0.8 0  1 0.8 0  1.2 0.8 0  1.4 0.8 0  1.6 0.8 0  1.8 0.8 0  2 0.8 0  2.2 0.8 0  2.4 0.8 0  2.6 0.8 0  2.8 0.8 0  3 0.8 0  3.2 0.8 0  3.4 0.8 0  3.6 0.8 0  3.8 0.8 0  4 0.8 0  4.2 0.8 0  4.4 0.8 0  4.6 0.8 0  4.8 0.8 0  5 0.8 0  5.2 0.8 0  5.4 0.8 0  5.6 0.8 0  5.8 0.8 0  6 0.8 0  6.2 0.8 0  6.4 0.8 0  6.6 0.8 0  6.8 0.8 0  7 0.8 0  7.2 0.8 0  7.4 0.8 0  7.6 0.8 0  7.8 0.8 0  8 0.8 0  8.199999999999999 0.8 0  8.4 0.8 0  8.6 0.8 0  8.800000000000001 0.8 0  9 0.8 0  9.199999999999999 0.8 0  9.4 0.8 0  9.6 0.8 0  9.800000000000001 0.8 0  10 0.8 0  0 1 0  0.2 1 0  0.4 1 0  0.6 1 0  0.8 1 0  1 1 0  1.2 1 0  1.4 1 0  1.6 1 0  1.8 1 0  2 1 0  2.2 1 0  2.4 1 0  2.6 1 0  2.8 1 0  3 1 0  3.2 1 0  3.4 1 0  3.6 1 0  3.8 1 0  4 1 0  4.2 1 0  4.4 1 0  4.6 1 0  4.8 1 0  5 1 0  5.2 1 0  5.4 1 0  5.6 1 0  5.8 1 0  6 1 0  6.2 1 0  6.4 1 0  6.6 1 0  6.8 1 0  7 1 0  7.2 1 0  7.4 1 0  7.6 1 0  7.8 1 0  8 1 0  8.199999999999999 1 0  8.4 1 0  8.6 1 0  8.800000000000001 1 0  9 1 0  9.199999999999999 1 0  9.4 1 0  9.6 1 0  9.800000000000001 1 0  10 1 0  0 1.2 0  0.2 1.2 0  0.4 1.2 0  0.6 1.2 0  0.8 1.2 0  1 1.2 0  1.2 1.2 0  1.4 1.2 0  1.6 1.2 0  1.8 1.2 0  2 1.2 0  2.2 1.2 0  2.4 1.2 0  2.6 1.2 0  2.8 1.2 0  3 1.2 0  3.2 1.2 0  3.4 1.2 0  3.6 1.2 0  3.8 1.2 0  4 1.2 0  4.2 1.2 0  4.4 1.2 0  4.6 1.2 0  4.8 1.2 0  5 1.2 0  5.2 1.2 0  5.4 1.2 0  5.6 1.2 0  5.8 1.2 0  6 1.2 0  6.2 1.2 0  6.4 1.2 0  6.6 1.2 0  6.8 1.2 0  7 1.2 0  7.2 1.2 0  7.4 1.2 0  7.6 1.2 0  7.8 1.2 0  8 1.2 0  8.199999999999999 1.2 0  8.4 1.2 0  8.6 1.2 0  8.800000000000001 1.2 0  9 1.2 0  9.199999999999999 1.2 0  9.4 1.2 0  9.6 1.2 0  9.800000000000001 1.2 0  10 1.2 0  0 1.4 0  0.2 1.4 0  0.4 1.4 0  0.6 1.4 0  0.8 1.4 0  1 1.4 0  1.2 1.4 0  1.4 1.4 0  1.6 1.4 0  1.8 1.4 0  2 1.4 0  2.2 1.4 0  2.4 1.4 0  2.6 1.4 0  2.8 1.4 0  3 1.4 0  3.2 1.4 0  3.4 1.4 0  3.6 1.4 0  3.8 1.4 0  4 1.4 0  4.2 1.4 0  4.4 1.4 0  4.6 1.4 0  4.8 1.4 0  5 1.4 0  5.2 1.4 0  5.4 1.4 0  5.6 1.4 0  5.8 1.4 0  6 1.4 0  6.2 1.4 0  6.4 1.4 0  6.6 1.4 0  6.8 1.4 0  7 1.4 0  7.2 1.4 0  7.4 1.4 0  7.6 1.4 0  7.8 1.4 0  8 1.4 0  8.199999999999999 1.4 0  8.4 1.4 0  8.6 1.4 0  8.800000000000001 1.4 0  9 1.4 0  9.199999999999999 1.4 0  9.4 1.4 0  9.6 1.4 0  9.800000000000001 1.4 0  10 1.4 0  0 1.6 0  0.2 1.6 0  0.4 1.6 0  0.6 1.6 0  0.8 1.6 0  1 1.6 0  1.2 1.6 0  1.4 1.6 0  1.6 1.6 0  1.8 1.6 0  2 1.6 0  2.2 1.6 0  2.4 1.6 0  2.6 1.6 0  2.8 1.6 0  3 1.6 0  3.2 1.6 0  3.4 1.6 0  3.6 1.6 0  3.8 1.6 0  4 1.6 0  4.2 1.6 0  4.4 1.6 0  4.6 1.6 0  4.8 1.6 0  5 1.6 0  5.2 1.6 0  5.4 1.6 0  5.6 1.6 0  5.8 1.6 0  6 1.6 0  6.2 1.6 0  6.4 1.6 0  6.6 1.6 0  6.8 1.6 0  7 1.6 0  7.2 1.6 0  7.4 1.6 0  7.6 1.6 0  7.8 1.6 0  8 1.6 0  8.199999999999999 1.6 0  8.4 1.6 0  8.6 1.6 0  8.800000000000001 1.6 0  9 1.6 0  9.199999999999999 1.6 0  9.4 1.6 0  9.6 1.6 0  9.800000000000001 1.6 0  10 1.6 0  0 1.8 0  0.2 1.8 0  0.4 1.8 0  0.6 1.8 0  0.8 1.8 0  1 1.8 0  1.2 1.8 0  1.4 1.8 0  1.6 1.8 0  1.8 1.8 0  2 1.8 0  2.2 1.8 0  2.4 1.8 0  2.6 1.8 0  2.8 1.8 0  3 1.8 0  3.2 1.8 0  3.4 1.8 0  3.6 1.8 0  3.8 1.8 0  4 1.8 0  4.2 1.8 0  4.4 1.8 0  4.6 1.8 0  4.8 1.8 0  5 1.8 0  5.2 1.8 0  5.4 1.8 0  5.6 1.8 0  5.8 1.8 0  6 1.8 0  6.2 1.8 0  6.4 1.8 0  6.6 1.8 0  6.8 1.8 0  7 1.8 0  7.2 1.8 0  7.4 1.8 0  7.6 1.8 0  7.8 1.8 0  8 1.8 0  8.199999999999999 1.8 0  8.4 1.8 0  8.6 1.8 0  8.800000000000001 1.8 0  9 1.8 0  9.199999999999999 1.8 0  9.4 1.8 0  9.6 1.8 0  9.800000000000001 1.8 0  10 1.8 0  0 2 0  0.2 2 0  0.4 2 0  0.6 2 0  0.8 2 0  1 2 0  1.2 2 0  1.4 2 0  1.6 2 0  1.8 2 0  2 2 0  2.2 2 0  2.4 2 0  2.6 2 0  2.8 2 0  3 2 0  3.2 2 0  3.4 2 0  3.6 2 0  3.8 2 0  4 2 0  4.2 2 0  4.4 2 0  4.6 2 0  4.8 2 0  5 2 0  5.2 2 0  5.4 2 0  5.6 2 0  5.8 2 0  6 2 0  6.2 2 0  6.4 2 0  6.6 2 0  6.8 2 0  7 2 0  7.2 2 0  7.4 2 0  7.6 2 0  7.8 2 0  8 2 0  8.199999999999999 2 0  8.4 2 0  8.6 2 0  8.800000000000001 2 0  9 2 0  9.199999999999999 2 0  9.4 2 0  9.6 2 0  9.800000000000001 2 0  10 2 0  0 2.2 0  0.2 2.2 0  0.4 2.2 0  0.6 2.2 0  0.8 2.2 0  1 2.2 0  1.2 2.2 0  1.4 2.2 0  1.6 2.2 0  1.8 2.2 0  2 2.2 0  2.2 2.2 0  2.4 2.2 0  2.6 2.2 0  2.8 2.2 0  3 2.2 0  3.2 2.2 0  3.4 2.2 0  3.6 2.2 0  3.8 2.2 0  4 2.2 0  4.2 2.2 0  4.4 2.2 0  4.6 2.2 0  4.8 2.2 0  5 2.2 0  5.2 2.2 0  5.4 2.2 0  5.6 2.2 0  5.8 2.2 0  6 2.2 0  6.2 2.2 0  6.4 2.2 0  6.6 2.2 0  6.8 2.2 0  7 2.2 0  7.2 2.2 0  7.4 2.2 0  7.6 2.2 0  7.8 2.2 0  8 2.2 0  8.199999999999999 2.2 0  8.4 2.2 0  8.6 2.2 0  8.800000000000001 2.2 0  9 2.2 0  9.199999999999999 2.2 0  9.4 2.2 0  9.6 2.2 0  9.800000000000001 2.2 0  10 2.2 0  0 2.4 0  0.2 2.4 0  0.4 2.4 0  0.6 2.4 0  0.8 2.4 0  1 2.4 0  1.2 2.4 0  1.4 2.4 0  1.6 2.4 0  1.8 2.4 0  2 2.4 0  2.2 2.4 0  2.4 2.4 0  2.6 2.4 0  2.8 2.4 0  3 2.4 0  3.2 2.4 0  3.4 2.4 0  3.6 2.4 0  3.8 2.4 0  4 2.4 0  4.2 2.4 0  4.4 2.4 0  4.6 2.4 0  4.8 2.4 0  5 2.4 0  5.2 2.4 0  5.4 2.4 0  5.6 2.4 0  5.8 2.4 0  6 2.4 0  6.2 2.4 0  6.4 2.4 0  6.6 2.4 0  6.8 2.4 0  7 2.4 0  7.2 2.4 0  7.4 2.4 0  7.6 2.4 0  7.8 2.4 0  8 2.4 0  8.199999999999999 2.4 0  8.4 2.4 0  8.6 2.4 0  8.800000000000001 2.4 0  9 2.4 0  9.199999999999999 2.4 0  9.4 2.4 0  9.6 2.4 0  9.800000000000001 2.4 0  10 2.4 0  0 2.6 0  0.2 2.6 0  0.4 2.6 0  0.6 2.6 0  0.8 2.6 0  1 2.6 0  1.2 2.6 0  1.4 2.6 0  1.6 2.6 0  1.8 2.6 0  2 2.6 0  2.2 2.6 0  2.4 2.6 0  2.6 2.6 0  2.8 2.6 0  3 2.6 0  3.2 2.6 0  3.4 2.6 0  3.6 2.6 0  3.8 2.6 0  4 2.6 0  4.2 2.6 0  4.4 2.6 0  4.6 2.6 0  4.8 2.6 0  5 2.6 0  5.2 2.6 0  5.4 2.6 0  5.6 2.6 0  5.8 2.6 0  6 2.6 0  6.2 2.6 0  6.4 2.6 0  6.6 2.6 0  6.8 2.6 0  7 2.6 0  7.2 2.6 0  7.4 2.6 0  7.6 2.6 0  7.8 2.6 0  8 2.6 0  8.199999999999999 2.6 0  8.4 2.6 0  8.6 2.6 0  8.800000000000001 2.6 0  9 2.6 0  9.199999999999999 2.6 0  9.4 2.6 0  9.6 2.6 0  9.800000000000001 2.6 0  10 2.6 0  0 2.8 0  0.2 2.8 0  0.4 2.8 0  0.6 2.8 0  0.8 2.8 0  1 2.8 0  1.2 2.8 0  1.4 2.8 0  1.6 2.8 0  1.8 2.8 0  2 2.8 0  2.2 2.8 0  2.4 2.8 0  2.6 2.8 0  2.8 2.8 0  3 2.8 0  3.2 2.8 0  3.4 2.8 0  3.6 2.8 0  3.8 2.8 0  4 2.8 0  4.2 2.8 0  4.4 2.8 0  4.6 2.8 0  4.8 2.8 0  5 2.8 0  5.2 2.8 0  5.4 2.8 0  5.6 2.8 0  5.8 2.8 0  6 2.8 0  6.2 2.8 0  6.4 2.8 0  6.6 2.8 0  6.8 2.8 0  7 2.8 0  7.2 2.8 0  7.4 2.8 0  7.6 2.8 0  7.8 2.8 0  8 2.8 0  8.199999999999999 2.8 0  8.4 2.8 0  8.6 2.8 0  8.800000000000001 2.8 0  9 2.8 0  9.199999999999999 2.8 0  9.4 2.8 0  9.6 2.8 0  9.800000000000001 2.8 0  10 2.8 0  0 3 0  0.2 3 0  0.4 3 0  0.6 3 0  0.8 3 0  1 3 0  1.2 3 0  1.4 3 0  1.6 3 0  1.8 3 0  2 3 0  2.2 3 0  2.4 3 0  2.6 3 0  2.8 3 0  3 3 0  3.2 3 0  3.4 3 0  3.6 3 0  3.8 3 0  4 3 0  4.2 3 0  4.4 3 0  4.6 3 0  4.8 3 0  5 3 0  5.2 3 0  5.4 3 0  5.6 3 0  5.8 3 0  6 3 0  6.2 3 0  6.4 3 0  6.6 3 0  6.8 3 0  7 3 0  7.2 3 0  7.4 3 0  7.6 3 0  7.8 3 0  8 3 0  8.199999999999999 3 0  8.4 3 0  8.6 3 0  8.800000000000001 3 0  9 3 0  9.199999999999999 3 0  9.4 3 0  9.6 3 0  9.800000000000001 3 0  10 3 0  0 3.2 0  0.2 3.2 0  0.4 3.2 0  0.6 3.2 0  0.8 3.2 0  1 3.2 0  1.2 3.2 0  1.4 3.2 0  1.6 3.2 0  1.8 3.2 0  2 3.2 0  2.2 3.2 0  2.4 3.2 0  2.6 3.2 0  2.8 3.2 0  3 3.2 0  3.2 3.2 0  3.4 3.2 0  3.6 3.2 0  3.8 3.2 0  4 3.2 0  4.2 3.2 0  4.4 3.2 0  4.6 3.2 0  4.8 3.2 0  5 3.2 0  5.2 3.2 0  5.4 3.2 0  5.6 3.2 0  5.8 3.2 0  6 3.2 0  6.2 3.2 0  6.4 3.2 0  6.6 3.2 0  6.8 3.2 0  7 3.2 0  7.2 3.2 0  7.4 3.2 0  7.6 3.2 0  7.8 3.2 0  8 3.2 0  8.199999999999999 3.2 0  8.4 3.2 0  8.6 3.2 0  8.800000000000001 3.2 0  9 3.2 0  9.199999999999999 3.2 0  9.4 3.2 0  9.6 3.2 0  9.800000000000001 3.2 0  10 3.2 0  0 3.4 0  0.2 3.4 0  0.4 3.4 0  0.6 3.4 0  0.8 3.4 0  1 3
[...]
<PointData  Scalars="f_12"> 
<DataArray  type="Float64"  Name="f_12"  format="ascii">7.4457341540512567e-01  7.3703624373866683e-01  7.3288073784435481e-01  7.3038108279289060e-01  7.2887687712767668e-01  7.2807272815363133e-01  7.2780358439401449e-01  7.2795646458057239e-01  7.2844399167362672e-01  7.2919491457977959e-01  7.3015012317926831e-01  7.3126042780544087e-01  7.3248493947906390e-01  7.3378971421658989e-01  7.3514657581616683e-01  7.3653209734688607e-01  7.3792673219490634e-01  7.3931408282907507e-01  7.4068029177259698e-01  7.4201353740065112e-01  7.4330361712799786e-01  7.4454160170489181e-01  7.4571954614417224e-01  7.4683024487522220e-01  7.4786702084609780e-01  7.4882354038254617e-01  7.4969364765797919e-01  7.5047121468923728e-01  7.5115000495330919e-01  7.5172355116360068e-01  7.5218505063019148e-01  7.5252728516662137e-01  7.5274257692087765e-01  7.5282279699894439e-01  7.5275945039036707e-01  7.5254386823560759e-01  7.5216754585320855e-01  7.5162266944669998e-01  7.5090286982580534e-01  7.5000421455486577e-01  7.4892637350513980e-01  7.4767371258904280e-01  7.4625568066554626e-01  7.4468505323460954e-01  7.4297100601085997e-01  7.4110091684608403e-01  7.3899895871683674e-01  7.3643858414914176e-01  7.3286589944772129e-01  7.2706083170214242e-01  7.1661111764031560e-01  7.4600346264367967e-01  7.3824232144300239e-01  7.3319033456727567e-01  7.2970923939588406e-01  7.2735462848903387e-01  7.2586420002040408e-01  7.2505106775767014e-01  7.2477186137751304e-01  7.2491308961131506e-01  7.2538360128348744e-01  7.2610965905049862e-01  7.2703136522021883e-01  7.2809990892150878e-01  7.2927538171618644e-01  7.3052502259736740e-01  7.3182180282299492e-01  7.3314328480789603e-01  7.3447070276530191e-01  7.3578822200513450e-01  7.3708234103663783e-01  7.3834140669519488e-01  7.3955521769925048e-01  7.4071469646278643e-01  7.4181161272766827e-01  7.4283834572815477e-01  7.4378767425666459e-01  7.4465258627300834e-01  7.4542610170136514e-01  7.4610110390709117e-01  7.4667017716026407e-01  7.4712544930040059e-01  7.4745844094435099e-01  7.4765992504535361e-01  7.4771980349861022e-01  7.4762701078660876e-01  7.4736945814064260e-01  7.4693403468485031e-01  7.4630668292579250e-01  7.4547256132895467e-01  7.4441628959566364e-01  7.4312222875816003e-01  7.4157465139754020e-01  7.3975745578712759e-01  7.3765267616255037e-01  7.3523626932683250e-01  7.3246823003110828e-01  7.2927157030680656e-01  7.2549050683488059e-01  7.2081142460993308e-01  7.1461669113948900e-01  7.0568621003471865e-01  7.4091235562095836e-01  7.3353508335638418e-01  7.2910245093043613e-01  7.2640115308061004e-01  7.2460855284561931e-01  7.2346704130220829e-01  7.2285156413631924e-01  7.2267198603972516e-01  7.2285177879405105e-01  7.2332394520867715e-01  7.2403026515778124e-01  7.2492078149887085e-01  7.2595304729001076e-01  7.2709120721902887e-01  7.2830504225340142e-01  7.2956906512912567e-01  7.3086171048665205e-01  7.3216463394828857e-01  7.3346211765945135e-01  7.3474057153159089e-01  7.3598811616891713e-01  7.3719423295612208e-01  7.3834946765769272e-01  7.3944517535074883e-01  7.4047329616443525e-01  7.4142615292581426e-01  7.4229626333572163e-01  7.4307616071170546e-01  7.4375821867659675e-01  7.4433447650752660e-01  7.4479646328161508e-01  7.4513502057300962e-01  7.4534012540540895e-01  7.4540071760016735e-01  7.4530453875440206e-01  7.4503799400774851e-01  7.4458605264137756e-01  7.4393220940063232e-01  7.4305853493541074e-01  7.4194584993029888e-01  7.4057406098693657e-01  7.3892269201010774e-01  7.3697162228768487e-01  7.3470198107583484e-01  7.3209700870820560e-01  7.2914239909094480e-01  7.2582502458500409e-01  7.2212758191165205e-01  7.1801310826176745e-01  7.1338147238815275e-01  7.0793308497331675e-01  7.3417905626460211e-01  7.2726551379754911e-01  7.2324377020229802e-01  7.2126665441223248e-01  7.2040972461506880e-01  7.2006516545738519e-01  7.2005991519453783e-01  7.2032839265956206e-01  7.2083067149129809e-01  7.2153242894299463e-01  7.2240109504239225e-01  7.2340588817012386e-01  7.2451840341900831e-01  7.2571297813008073e-01  7.2696676362829704e-01  7.2825959024966680e-01  7.2957371894456424e-01  7.3089354608553325e-01  7.3220530179602061e-01  7.3349676307396794e-01  7.3475699080512591e-01  7.3597609256359031e-01  7.3714500915717363e-01  7.3825532094464907e-01  7.3929906921159816e-01  7.4026858783598370e-01  7.4115634081020487e-01  7.4195476175996200e-01  7.4265609235301977e-01  7.4325221743282111e-01  7.4373449591039609e-01  7.4409358802847558e-01  7.4431928176809703e-01  7.4440032418449242e-01  7.4432426774579263e-01  7.4407734789558833e-01  7.4364441692106842e-01  7.4300897201613392e-01  7.4215333396959127e-01  7.4105905975058151e-01  7.3970771102696686e-01  7.3808215620093376e-01  7.3616866168769468e-01  7.3396013360565981e-01  7.3146099996725278e-01  7.2869434027636359e-01  7.2571183763370584e-01  7.2260650551331562e-01  7.1952555475808055e-01  7.1667187453291414e-01  7.1425148411952810e-01  7.2742476357998997e-01  7.2093916116550172e-01  7.1727818104120122e-01  7.1564712570974798e-01  7.1540137623302957e-01  7.1586019555381086e-01  7.1658073080762363e-01  7.1744440751593075e-01  7.1841674249798304e-01  7.1948359449790966e-01  7.2063388713315268e-01  7.2185563712741729e-01  7.2313572581317842e-01  7.2446051136153666e-01  7.2581643942853324e-01  7.2719046225249673e-01  7.2857027055909063e-01  7.2994438721505628e-01  7.3130217041068379e-01  7.3263376211572817e-01  7.3393000555729770e-01  7.3518234622015077e-01  7.3638272445293540e-01  7.3752346358272025e-01  7.3859715485884248e-01  7.3959653906421730e-01  7.4051438390094804e-01  7.4134335606288626e-01  7.4207588714228534e-01  7.4270403316023403e-01  7.4321932862097806e-01  7.4361263771349762e-01  7.4387400786752456e-01  7.4399253469921633e-01  7.4395625302697044e-01  7.4375207694380874e-01  7.4336582413284924e-01  7.4278237750323162e-01  7.4198606340977546e-01  7.4096136394493206e-01  7.3969413635784298e-01  7.3817359285431827e-01  7.3639540832681083e-01  7.3436648272413907e-01  7.3211209679583955e-01  7.2968645721214787e-01  7.2718787071889179e-01  7.2477981282836967e-01  7.2271835660620909e-01  7.2138292304424689e-01  7.2129316573073532e-01  7.2118031299064889e-01  7.1506583491096642e-01  7.1172225099441999e-01  7.1034913328058813e-01  7.1036089728183893e-01  7.1129039131489258e-01  7.1264350146092836e-01  7.1410010218103259e-01  7.1557912955581959e-01  7.1706376840772978e-01  7.1855318381154920e-01  7.2004849502306489e-01  7.2154909605861661e-01  7.2305218586844011e-01  7.2455319435981458e-01  7.2604634785311828e-01  7.2752514918812394e-01  7.2898272884965332e-01  7.3041208017021964e-01  7.3180620440800193e-01  7.3315818979242853e-01  7.3446124322071260e-01  7.3570868787167532e-01  7.3689393563936723e-01  7.3801044010395056e-01  7.3905163359247106e-01  7.4001085053775106e-01  7.4088123866271127e-01  7.4165565941134559e-01  7.4232657950332515e-01  7.4288595657526724e-01  7.4332512374990412e-01  7.4363468092184704e-01  7.4380440499397082e-01  7.4382319787628903e-01  7.4367910069010523e-01  7.4335941662428773e-01  7.4285100514773994e-01  7.4214083945746101e-01  7.4121696090181954e-01  7.4007002398373400e-01  7.3869571094868569e-01  7.3709841662404940e-01  7.3529677754596445e-01  7.3333186706257836e-01  7.3127923353393243e-01  7.2926647204127681e-01  7.2749876372008693e-01  7.2629586807978408e-01  7.2614523042840140e-01  7.2777392036234001e-01  7.1557383776768269e-01  7.0977537827478332e-01  7.0670681442644545e-01  7.0554838920447793e-01  7.0573079844916009e-01  7.0684071732767473e-01  7.0854360278148243e-01  7.1048241141250612e-01  7.1242650291384879e-01  7.1432079387055714e-01  7.1615872214425513e-01  7.1794609208082105e-01  7.1969001279713574e-01  7.2139571538587133e-01  7.2306598134504219e-01  7.2470139818335255e-01  7.2630081382213763e-01  7.2786177487977355e-01  7.2938088628300168e-01  7.3085408464570834e-01  7.3227683563367363e-01  7.3364426926007009e-01  7.3495126586539961e-01  7.3619250301745576e-01  7.3736247107540720e-01  7.3845546315220068e-01  7.3946554379266993e-01  7.4038649986301619e-01  7.4121177691352946e-01  7.4193440466004146e-01  7.4254691632249858e-01  7.4304126853720098e-01  7.4340877170876296e-01  7.4364004542060635e-01  7.4372502050683653e-01  7.4365301949876794e-01  7.4341296165868298e-01  7.4299375947593904e-01  7.4238500282811271e-01  7.4157806857348429e-01  7.4056785236273548e-01  7.3935540387404119e-01  7.3795186919653399e-01  7.3638432631299977e-01  7.3470438040903574e-01  7.3300083809003880e-01  7.3141854468290701e-01  7.3018682188179573e-01  7.2966340634015481e-01  7.3040419918558808e-01  7.3327513431791591e-01  7.1058220084621426e-01  7.0505157104850980e-01  7.0221903336877822e-01  7.0124303834845769e-01  7.0155910930545429e-01  7.0277460484480014e-01  7.0459933432493727e-01  7.0679399671564913e-01  7.0910075169727182e-01  7.1135362434557803e-01  7.1351545191077526e-01  7.1558551848328433e-01  7.1757257711722966e-01  7.1948624559208552e-01  7.2133435439767446e-01  7.2312236852882295e-01  7.2485352441126571e-01  7.2652917720062726e-01  7.2814916989709844e-01  7.2971215860019045e-01  7.3121587652626241e-01  7.3265733769506469e-01  7.3403298721308341e-01  7.3533880620085323e-01  7.3657037874950237e-01  7.3772292717946142e-01  7.3879132087559363e-01  7.3977006333065132e-01  7.4065326186579572e-01  7.4143458491260394e-01  7.4210721286375714e-01  7.4266379052092679e-01  7.4309639237445524e-01  7.4339651675740726e-01  7.4355513192202405e-01  7.4356280712925404e-01  7.4340997610095827e-01  7.4308740032320042e-01  7.4258692809186455e-01  7.4190268537505211e-01  7.4103289194480682e-01  7.3998257960908354e-01  7.3876761394203483e-01  7.3742061430755101e-01  7.3599968161462370e-01  7.3460138122598784e-01  7.3338039145588929e-01  7.3258001628939606e-01  7.3258116034295750e-01  7.3398382441545795e-01  7.3774624451391413e-01  7.0613082316454256e-01  7.0082714194764673e-01  6.9819617700983627e-01  6.9737558404518230e-01  6.9780168588434255e-01  6.9909264462570198e-01  7.0097761614358400e-01  7.0325216355404341e-01  7.0574473524024284e-01  7.0826898089410961e-01  7.1070548386982857e-01  7.1302936292077157e-01  7.1524304555009788e-01  7.1735615953009013e-01  7.1937888512063564e-01  7.2131979097439403e-01  7.2318529800079023e-01  7.2497974110665964e-01  7.2670562951480089e-01  7.2836394677486183e-01  7.2995442892229745e-01  7.3147579983534661e-01  7.3292595970882224e-01  7.3430212921846749e-01  7.3560095420455063e-01  7.3681857615551438e-01  7.3795067361787181e-01  7.3899247946989777e-01  7.3993877907451644e-01  7.4078389486707286e-01  7.4152166411481313e-01  7.4214541862013683e-01  7.4264797831714402e-01  7.4302167543333542e-01  7.4325843272122416e-01  7.4334992900323960e-01  7.4328789904169290e-01  7.4306463415543023e-01  7.4267377742731977e-01  7.4211154640500754e-01  7.4137857270074703e-01  7.4048263166605111e-01  7.3944266381622592e-01  7.3829469527662284e-01  7.3710060904735353e-01  7.3596132277720150e-01  7.3503702942184501e-01  7.3457922615113203e-01  7.3498323276009891e-01  7.3687761074436309e-01  7.4128115574972209e-01  7.0213454108821438e-01  6.9702337164421591e-01  6.9456411273143448e-01  6.9387580884345634e-01  6.9439380236202619e-01  6.9574299671656237e-01  6.9766389035980947e-01  6.9996841717706682e-01  7.0251178849139095e-01  7.0517063605361274e-01  7.0781010041901793e-01  7.1034422788795026e-01  7.1275647989338398e-01  7.1505075432802556e-01  7.1723639813908835e-01  7.1932308883485330e-01  7.2131909014410600e-01  7.2323077789531220e-01  7.2506265642094003e-01  7.2681755198020470e-01  7.2849685211407489e-01  7.3010073632062755e-01  7.3162837683526638e-01  7.3307810311319488e-01  7.3444753011014985e-01  7.3573365320219342e-01  7.3693291370072045e-01  7.3804123944271094e-01  7.3905406541255592e-01  7.3996634010671902e-01  7.4077252463338139e-01  7.4146659359255629e-01  7.4204204990680789e-01  7.4249197036665759e-01  7.4280910526827160e-01  7.4298606492826380e-01  7.4301563916798163e-01  7.4289131468344671e-01  7.4260808199019257e-01  7.4216366216470009e-01  7.4156034013984840e-01  7.4080767656948199e-01  7.3992650344979638e-01  7.3895482534039003e-01  7.3795661578695448e-01  7.3703514833840533e-01  7.3635369035038112e-01  7.3616862605521005e-01  7.3688438863969608e-01  7.3914802750033937e-01  7.4401748147763902e-01  6.9851385559814561e-01  6.9356614564613206e-01  6.9125288410815555e-01  6.9067702447142243e-01  6.9127206836991340e-01  6.9266743230942884e-01  6.9461141462121168e-01  6.9692611190411902e-01  6.9947998241830089e-01  7.0216993464840949e-01  7.0490695141356774e-01  7.0759327429984531e-01  7.1016696519870470e-01  7.1261708094922471e-01  7.1494796084689949e-01  7.1716805311533516e-01  7.1928598145946743e-01  7.2130914992962281e-01  7.2324333530206286e-01  7.2509267720321691e-01  7.2685982085766243e-01  7.2854610563088018e-01  7.3015175236058838e-01  7.3167602963577272e-01  7.3311739187042069e-01  7.3447358803324259e-01  7.3574174280459903e-01  7.3691841346518538e-01  7.3799962686953080e-01  7.3898090192949106e-01  7.3985726447292510e-01  7.4062326344757101e-01  7.4127300053249734e-01  7.4180018970579142e-01  7.4219826974825043e-01  7.4246060181326279e-01  7.4258079717975756e-01  7.4255323878139434e-01  7.4237388659683157e-01  7.4204149549859111e-01  7.4155943131059487e-01  7.4093835801116692e-01  7.4020020659704200e-01  7.3938406161459103e-01  7.3855498563028310e-01  7.3781748137737335e-01  7.3733653290024770e-01  7.3737150138149388e-01  7.3833265178010477e-01  7.4087894898767637e-01  7.4609320606630558e-01  6.9520054082980309e-01  6.9039166526454943e-01  6.8820229104728836e-01  6.8772177512015298e-01  6.8838139891952255e-01  6.8981364275858659e-01  6.9177254354031303e-01  6.9408748006372523e-01  6.9663546662405684e-01  6.9932388486593577e-01  7.0207895638023121e-01  7.0483621260461748e-01  7.0752463155878509e-01  7.1009947636457582e-01  7.1255348691401965e-01  7.1489082520309666e-01  7.1711874254724361e-01  7.1924456044410312e-01  7.2127456052697692e-01  7.2321364027515311e-01  7.2506528857265717e-01  7.2683168999433645e-01  7.2851387146036306e-01  7.3011185157601000e-01  7.3162477493255629e-01  7.3305102437905212e-01  7.3438830971348112e-01  7.3563373417944311e-01  7.3678384199816593e-01  7.3783465168666418e-01  7.3878168159423208e-01  7.3961997630278487e-01  7.4034414564475715e-01  7.4094843252378806e-01  7.4142683204336579e-01  7.4177329344647847e-01  7.4198204918766442e-01  7.4204813380054480e-01  7.4196818170802326e-01  7.4174163192096754e-01  7.4137252558541955e-01  7.4087217142014683e-01  7.4026309530822521e-01  7.3958492227365680e-01  7.3890323428682902e-01  7.3832314478822147e-01  7.3801060190973788e-01  7.3822681723227013e-01  7.3938581336044329e-01  7.4215416626963193e-01  7.4763016259921078e-01  6.9213864878067743e-01  6.8744761684226485e-01  6.8536307337817737e-01  6.8496308924019722e-01  6.8567663213741925e-01  6.8713823537586749e-01  6.8910626123751761e-01  6.9141564169514957e-01  6.9394969428505759e-01  6.9662278803490596e-01  6.9936931299212379e-01  7.0213618755879093e-01  7.0487651001542395e-01  7.0753851409344704e-01  7.1008974759116383e-01  7.1252530714764262e-01  7.1484882231829061e-01  7.1706623971126704e-01  7.1918350758144522e-01  7.2120569580056726e-01  7.2313670829966170e-01  7.2497925101477612e-01  7.2673490664535756e-01  7.2840424683916372e-01  7.2998694877648096e-01  7.3148190082435038e-01  7.3288729097513483e-01  7.3420067668067168e-01  7.3541903763648764e-01  7.3653881521728981e-01  7.3755594429818738e-01  7.3846588559523008e-01  7.3926366984711644e-01  7.3994396960174558e-01  7.4050122065686219e-01  7.4092982414683140e-01  7.4122447304153138e-01  7.4138066518041446e-01  7.4139549160332885e-01  7.4126882815798223e-01  7.4100511725671903e-01  7.4061601735956384e-01  7.4012434174931674e-01  7.3956994457945735e-01  7.3901861421061266e-01  7.3857574141878690e-01  7.3840781606892114e-01  7.3877721388736262e-01  7.4010037365364889e-01  7.4304865085090888e-01  7.4872966748145764e-01  6.8928361711154185e-01  6.8469243565809568e-01  6.8269624026653919e-01  6.8236387994527570e-01  6.8312209169252280e-01  6.8460674596762328e-01  6.8657948543139313e-01  6.8887958425228724e-01  6.9139527966461778e-01  6.9404620851528886e-01  6.9677237045001872e-01  6.9952699766554294e-01  7.0227165654588997e-01  7.0497201429502621e-01  7.0759015114888968e-01  7.1010235255144416e-01  7.1250515771481837e-01  7.1480147789793524e-01  7.1699595884136513e-01  7.1909320614864203e-01  7.2109708929043781e-01  7.2301050296874725e-01  7.2483533135559630e-01  7.2657249976380045e-01  7.2822205830152098e-01  7.2978327036737678e-01  7.3125469311059821e-01  7.3263424462945437e-01  7.3391925714321360e-01  7.3510651838279173e-01  7.3619230597498830e-01  7.3717242227732493e-01  7.3804224046373457e-01  7.3879677718122083e-01  7.3943081341904104e-01  7.3993909419778325e-01  7.4031665050230622e-01  7.4055930534482040e-01  7.4066445271231274e-01  7.4063223781277387e-01  7.4046732670543502e-01  7.4018154538146075e-01  7.3979781432442404e-01  7.3935604387582388e-01  7.3892206172286468e-01  7.3860135647927694e-01  7.3856071347728480e-01  7.3906323432623278e-01  7.4052688213880591e-01  7.4362591554789170e-01  7.4947330893702335e-01  6.8660070999331513e-01  6.8209387748674777e-01  6.8017171854122449e-01  6.7989566367861320e-01  6.8069040906772338e-01  6.8219266161218650e-01  6.8416655038891994e-01  6.8645477673677280e-01  6.8894951462356291e-01  6.9157459214719930e-01  6.9427432877918627e-01  6.9700641153758913e-01  6.9973725354692784e-01  7.0243879006409715e-01  7.0508566495621106e-01  7.0764988909974502e-01  7.1011392854480060e-01  7.1247514098551512e-01  7.1473564130504497e-01  7.1689884116376457e-01  7.1896808938119205e-01  7.2094612217185838e-01  7.2283486553175025e-01  7.2463539773736030e-01  7.2634798253025223e-01  7.2797212893422691e-01  7.2950665571023499e-01  7.3094975001215357e-01  7.3229901636628447e-01  7.3355151628573023e-01  7.3470380204246977e-01  7.3575195120374026e-01  7.3669161212193124e-01  7.3751807523308366e-01  7.3822639143764901e-01  7.3881156788501634e-01  7.3926888439854310e-01  7.3959439239134150e-01  7.3978568524014132e-01  7.3984306915040043e-01  7.3977132385158262e-01  7.3958233538983897e-01  7.3929903058246826e-01  7.3896128374196091e-01  7.3863487432414354e-01  7.3842528878952829e-01  7.3849945316864019e-01  7.3912089694787519e-01  7.4070849437512420e-01  7.4393814894690113e-01  7.4992561068432506e-01  6.8406334232559596e-01  6.7962744776773065e-01  6.7776685436558470e-01  6.7753712538397926e-01  6.7836116614614728e-01  6.7987618039350339e-01  6.8184817812126708e-01  6.8412257414520317e-01  6.8659472688589107e-01  6.8919188126617292e-01  6.9186185529307931e-01  6.9456583755466206e-01  6.9727375114703749e-01  6.9996122907633462e-01  7.0260753056742631e-01  7.0519368707454488e-01  7.0769880431761079e-01  7.1010968857116852e-01  7.1242409597768364e-01  7.1464333429045990e-01  7.1676968058954382e-01  7.1880533965582882e-01  7.2075200963850505e-01  7.2261071802294763e-01  7.2438178314420454e-01  7.2606483217500273e-01  7.2765884085915267e-01  7.2916217752092016e-01  7.3057264335769556e-01  7.3188750680888859e-01  7.3310353392250771e-01  7.3421702026955638e-01  7.3522383387343859e-01  7.3611948350259770e-01  7.3689923324491569e-01  7.3755829345715906e-01  7.3809213123140949e-01  7.3849696230404271e-01  7.3877051368952495e-01  7.3891318673323236e-01  7.3892981107485656e-01  7.3883227361191517e-01  7.3864345470184656e-01  7.3840314584754019e-01  7.3817703199407436e-01  7.3807053633737574e-01  7.3825061700754668e-01  7.3898101333199595e-01  7.4068107183496157e-01  7.4402748149413700e-01  7.5013709841204435e-01  6.8165151866257601e-01  6.7727492372216447e-01  6.7546499851313246e-01  6.7527275780324991e-01  6.7611959435590996e-01  6.7764299001117445e-01  6.7961037754828169e-01  6.8186932335872230e-01  6.8431777472032862e-01  6.8688579457754884e-01  6.8952410165171274e-01  6.9219676987953715e-01  6.9487653784328840e-01  6.9754178576172488e