<?xml version="1.0"?>
<VTKFile type="UnstructuredGrid"  version="0.1"  >
<UnstructuredGrid>
<Piece  NumberOfPoints="2601" NumberOfCells="5000">
<Points>
<DataArray  type="Float64"  NumberOfComponents="3"  format="ascii">0 0 0  0.2 0 0  0.4 0 0  0.6 0 0  0.8 0 0  1 0 0  1.2 0 0  1.4 0 0  1.6 0 0  1.8 0 0  2 0 0  2.2 0 0  2.4 0 0  2.6 0 0  2.8 0 0  3 0 0  3.2 0 0  3.4 0 0  3.6 0 0  3.8 0 0  4 0 0  4.2 0 0  4.4 0 0  4.6 0 0  4.8 0 0  5 0 0  5.2 0 0  5.4 0 0  5.6 0 0  5.8 0 0  6 0 0  6.2 0 0  6.4 0 0  6.6 0 0  6.8 0 0  7 0 0  7.2 0 0  7.4 0 0  7.6 0 0  7.8 0 0  8 0 0  8.199999999999999 0 0  8.4 0 0  8.6 0 0  8.800000000000001 0 0  9 0 0  9.199999999999999 0 0  9.4 0 0  9.6 0 0  9.800000000000001 0 0  10 0 0  0 0.2 0  0.2 0.2 0  0.4 0.2 0  0.6 0.2 0  0.8 0.2 0  1 0.2 0  1.2 0.2 0  1.4 0.2 0  1.6 0.2 0  1.8 0.2 0  2 0.2 0  2.2 0.2 0  2.4 0.2 0  2.6 0.2 0  2.8 0.2 0  3 0.2 0  3.2 0.2 0  3.4 0.2 0  3.6 0.2 0  3.8 0.2 0  4 0.2 0  4.2 0.2 0  4.4 0.2 0  4.6 0.2 0  4.8 0.2 0  5 0.2 0  5.2 0.2 0  5.4 0.2 0  5.6 0.2 0  5.8 0.2 0  6 0.2 0  6.2 0.2 0  6.4 0.2 0  6.6 0.2 0  6.8 0.2 0  7 0.2 0  7.2 0.2 0  7.4 0.2 0  7.6 0.2 0  7.8 0.2 0  8 0.2 0  8.199999999999999 0.2 0  8.4 0.2 0  8.6 0.2 0  8.800000000000001 0.2 0  9 0.2 0  9.199999999999999 0.2 0  9.4 0.2 0  9.6 0.2 0  9.800000000000001 0.2 0  10 0.2 0  0 0.4 0  0.2 0.4 0  0.4 0.4 0  0.6 0.4 0  0.8 0.4 0  1 0.4 0  1.2 0.4 0  1.4 0.4 0  1.6 0.4 0  1.8 0.4 0  2 0.4 0  2.2 0.4 0  2.4 0.4 0  2.6 0.4 0  2.8 0.4 0  3 0.4 0  3.2 0.4 0  3.4 0.4 0  3.6 0.4 0  3.8 0.4 0  4 0.4 0  4.2 0.4 0  4.4 0.4 0  4.6 0.4 0  4.8 0.4 0  5 0.4 0  5.2 0.4 0  5.4 0.4 0  5.6 0.4 0  5.8 0.4 0  6 0.4 0  6.2 0.4 0  6.4 0.4 0  6.6 0.4 0  6.8 0.4 0  7 0.4 0  7.2 0.4 0  7.4 0.4 0  7.6 0.4 0  7.8 0.4 0  8 0.4 0  8.199999999999999 0.4 0  8.4 0.4 0  8.6 0.4 0  8.800000000000001 0.4 0  9 0.4 0  9.199999999999999 0.4 0  9.4 0.4 0  9.6 0.4 0  9.800000000000001 0.4 0  10 0.4 0  0 0.6 0  0.2 0.6 0  0.4 0.6 0  0.6 0.6 0  0.8 0.6 0  1 0.6 0  1.2 0.6 0  1.4 0.6 0  1.6 0.6 0  1.8 0.6 0  2 0.6 0  2.2 0.6 0  2.4 0.6 0  2.6 0.6 0  2.8 0.6 0  3 0.6 0  3.2 0.6 0  3.4 0.6 0  3.6 0.6 0  3.8 0.6 0  4 0.6 0  4.2 0.6 0  4.4 0.6 0  4.6 0.6 0  4.8 0.6 0  5 0.6 0  5.2 0.6 0  5.4 0.6 0  5.6 0.6 0  5.8 0.6 0  6 0.6 0  6.2 0.6 0  6.4 0.6 0  6.6 0.6 0  6.8 0.6 0  7 0.6 0  7.2 0.6 0  7.4 0.6 0  7.6 0.6 0  7.8 0.6 0  8 0.6 0  8.199999999999999 0.6 0  8.4 0.6 0  8.6 0.6 0  8.800000000000001 0.6 0  9 0.6 0  9.199999999999999 0.6 0  9.4 0.6 0  9.6 0.6 0  9.800000000000001 0.6 0  10 0.6 0  0 0.8 0  0.2 0.8 0  0.4 0.8 0  0.6 0.8 0  0.8 0.8 0  1 0.8 0  1.2 0.8 0  1.4 0.8 0  1.6 0.8 0  1.8 0.8 0  2 0.8 0  2.2 0.8 0  2.4 0.8 0  2.6 0.8 0  2.8 0.8 0  3 0.8 0  3.2 0.8 0  3.4 0.8 0  3.6 0.8 0  3.8 0.8 0  4 0.8 0  4.2 0.8 0  4.4 0.8 0  4.6 0.8 0  4.8 0.8 0  5 0.8 0  5.2 0.8 0  5.4 0.8 0  5.6 0.8 0  5.8 0.8 0  6 0.8 0  6.2 0.8 0  6.4 0.8 0  6.6 0.8 0  6.8 0.8 0  7 0.8 0  7.2 0.8 0  7.4 0.8 0  7.6 0.8 0  7.8 0.8 0  8 0.8 0  8.199999999999999 0.8 0  8.4 0.8 0  8.6 0.8 0  8.800000000000001 0.8 0  9 0.8 0  9.199999999999999 0.8 0  9.4 0.8 0  9.6 0.8 0  9.800000000000001 0.8 0  10 0.8 0  0 1 0  0.2 1 0  0.4 1 0  0.6 1 0  0.8 1 0  1 1 0  1.2 1 0  1.4 1 0  1.6 1 0  1.8 1 0  2 1 0  2.2 1 0  2.4 1 0  2.6 1 0  2.8 1 0  3 1 0  3.2 1 0  3.4 1 0  3.6 1 0  3.8 1 0  4 1 0  4.2 1 0  4.4 1 0  4.6 1 0  4.8 1 0  5 1 0  5.2 1 0  5.4 1 0  5.6 1 0  5.8 1 0  6 1 0  6.2 1 0  6.4 1 0  6.6 1 0  6.8 1 0  7 1 0  7.2 1 0  7.4 1 0  7.6 1 0  7.8 1 0  8 1 0  8.199999999999999 1 0  8.4 1 0  8.6 1 0  8.800000000000001 1 0  9 1 0  9.199999999999999 1 0  9.4 1 0  9.6 1 0  9.800000000000001 1 0  10 1 0  0 1.2 0  0.2 1.2 0  0.4 1.2 0  0.6 1.2 0  0.8 1.2 0  1 1.2 0  1.2 1.2 0  1.4 1.2 0  1.6 1.2 0  1.8 1.2 0  2 1.2 0  2.2 1.2 0  2.4 1.2 0  2.6 1.2 0  2.8 1.2 0  3 1.2 0  3.2 1.2 0  3.4 1.2 0  3.6 1.2 0  3.8 1.2 0  4 1.2 0  4.2 1.2 0  4.4 1.2 0  4.6 1.2 0  4.8 1.2 0  5 1.2 0  5.2 1.2 0  5.4 1.2 0  5.6 1.2 0  5.8 1.2 0  6 1.2 0  6.2 1.2 0  6.4 1.2 0  6.6 1.2 0  6.8 1.2 0  7 1.2 0  7.2 1.2 0  7.4 1.2 0  7.6 1.2 0  7.8 1.2 0  8 1.2 0  8.199999999999999 1.2 0  8.4 1.2 0  8.6 1.2 0  8.800000000000001 1.2 0  9 1.2 0  9.199999999999999 1.2 0  9.4 1.2 0  9.6 1.2 0  9.800000000000001 1.2 0  10 1.2 0  0 1.4 0  0.2 1.4 0  0.4 1.4 0  0.6 1.4 0  0.8 1.4 0  1 1.4 0  1.2 1.4 0  1.4 1.4 0  1.6 1.4 0  1.8 1.4 0  2 1.4 0  2.2 1.4 0  2.4 1.4 0  2.6 1.4 0  2.8 1.4 0  3 1.4 0  3.2 1.4 0  3.4 1.4 0  3.6 1.4 0  3.8 1.4 0  4 1.4 0  4.2 1.4 0  4.4 1.4 0  4.6 1.4 0  4.8 1.4 0  5 1.4 0  5.2 1.4 0  5.4 1.4 0  5.6 1.4 0  5.8 1.4 0  6 1.4 0  6.2 1.4 0  6.4 1.4 0  6.6 1.4 0  6.8 1.4 0  7 1.4 0  7.2 1.4 0  7.4 1.4 0  7.6 1.4 0  7.8 1.4 0  8 1.4 0  8.199999999999999 1.4 0  8.4 1.4 0  8.6 1.4 0  8.800000000000001 1.4 0  9 1.4 0  9.199999999999999 1.4 0  9.4 1.4 0  9.6 1.4 0  9.800000000000001 1.4 0  10 1.4 0  0 1.6 0  0.2 1.6 0  0.4 1.6 0  0.6 1.6 0  0.8 1.6 0  1 1.6 0  1.2 1.6 0  1.4 1.6 0  1.6 1.6 0  1.8 1.6 0  2 1.6 0  2.2 1.6 0  2.4 1.6 0  2.6 1.6 0  2.8 1.6 0  3 1.6 0  3.2 1.6 0  3.4 1.6 0  3.6 1.6 0  3.8 1.6 0  4 1.6 0  4.2 1.6 0  4.4 1.6 0  4.6 1.6 0  4.8 1.6 0  5 1.6 0  5.2 1.6 0  5.4 1.6 0  5.6 1.6 0  5.8 1.6 0  6 1.6 0  6.2 1.6 0  6.4 1.6 0  6.6 1.6 0  6.8 1.6 0  7 1.6 0  7.2 1.6 0  7.4 1.6 0  7.6 1.6 0  7.8 1.6 0  8 1.6 0  8.199999999999999 1.6 0  8.4 1.6 0  8.6 1.6 0  8.800000000000001 1.6 0  9 1.6 0  9.199999999999999 1.6 0  9.4 1.6 0  9.6 1.6 0  9.800000000000001 1.6 0  10 1.6 0  0 1.8 0  0.2 1.8 0  0.4 1.8 0  0.6 1.8 0  0.8 1.8 0  1 1.8 0  1.2 1.8 0  1.4 1.8 0  1.6 1.8 0  1.8 1.8 0  2 1.8 0  2.2 1.8 0  2.4 1.8 0  2.6 1.8 0  2.8 1.8 0  3 1.8 0  3.2 1.8 0  3.4 1.8 0  3.6 1.8 0  3.8 1.8 0  4 1.8 0  4.2 1.8 0  4.4 1.8 0  4.6 1.8 0  4.8 1.8 0  5 1.8 0  5.2 1.8 0  5.4 1.8 0  5.6 1.8 0  5.8 1.8 0  6 1.8 0  6.2 1.8 0  6.4 1.8 0  6.6 1.8 0  6.8 1.8 0  7 1.8 0  7.2 1.8 0  7.4 1.8 0  7.6 1.8 0  7.8 1.8 0  8 1.8 0  8.199999999999999 1.8 0  8.4 1.8 0  8.6 1.8 0  8.800000000000001 1.8 0  9 1.8 0  9.199999999999999 1.8 0  9.4 1.8 0  9.6 1.8 0  9.800000000000001 1.8 0  10 1.8 0  0 2 0  0.2 2 0  0.4 2 0  0.6 2 0  0.8 2 0  1 2 0  1.2 2 0  1.4 2 0  1.6 2 0  1.8 2 0  2 2 0  2.2 2 0  2.4 2 0  2.6 2 0  2.8 2 0  3 2 0  3.2 2 0  3.4 2 0  3.6 2 0  3.8 2 0  4 2 0  4.2 2 0  4.4 2 0  4.6 2 0  4.8 2 0  5 2 0  5.2 2 0  5.4 2 0  5.6 2 0  5.8 2 0  6 2 0  6.2 2 0  6.4 2 0  6.6 2 0  6.8 2 0  7 2 0  7.2 2 0  7.4 2 0  7.6 2 0  7.8 2 0  8 2 0  8.199999999999999 2 0  8.4 2 0  8.6 2 0  8.800000000000001 2 0  9 2 0  9.199999999999999 2 0  9.4 2 0  9.6 2 0  9.800000000000001 2 0  10 2 0  0 2.2 0  0.2 2.2 0  0.4 2.2 0  0.6 2.2 0  0.8 2.2 0  1 2.2 0  1.2 2.2 0  1.4 2.2 0  1.6 2.2 0  1.8 2.2 0  2 2.2 0  2.2 2.2 0  2.4 2.2 0  2.6 2.2 0  2.8 2.2 0  3 2.2 0  3.2 2.2 0  3.4 2.2 0  3.6 2.2 0  3.8 2.2 0  4 2.2 0  4.2 2.2 0  4.4 2.2 0  4.6 2.2 0  4.8 2.2 0  5 2.2 0  5.2 2.2 0  5.4 2.2 0  5.6 2.2 0  5.8 2.2 0  6 2.2 0  6.2 2.2 0  6.4 2.2 0  6.6 2.2 0  6.8 2.2 0  7 2.2 0  7.2 2.2 0  7.4 2.2 0  7.6 2.2 0  7.8 2.2 0  8 2.2 0  8.199999999999999 2.2 0  8.4 2.2 0  8.6 2.2 0  8.800000000000001 2.2 0  9 2.2 0  9.199999999999999 2.2 0  9.4 2.2 0  9.6 2.2 0  9.800000000000001 2.2 0  10 2.2 0  0 2.4 0  0.2 2.4 0  0.4 2.4 0  0.6 2.4 0  0.8 2.4 0  1 2.4 0  1.2 2.4 0  1.4 2.4 0  1.6 2.4 0  1.8 2.4 0  2 2.4 0  2.2 2.4 0  2.4 2.4 0  2.6 2.4 0  2.8 2.4 0  3 2.4 0  3.2 2.4 0  3.4 2.4 0  3.6 2.4 0  3.8 2.4 0  4 2.4 0  4.2 2.4 0  4.4 2.4 0  4.6 2.4 0  4.8 2.4 0  5 2.4 0  5.2 2.4 0  5.4 2.4 0  5.6 2.4 0  5.8 2.4 0  6 2.4 0  6.2 2.4 0  6.4 2.4 0  6.6 2.4 0  6.8 2.4 0  7 2.4 0  7.2 2.4 0  7.4 2.4 0  7.6 2.4 0  7.8 2.4 0  8 2.4 0  8.199999999999999 2.4 0  8.4 2.4 0  8.6 2.4 0  8.800000000000001 2.4 0  9 2.4 0  9.199999999999999 2.4 0  9.4 2.4 0  9.6 2.4 0  9.800000000000001 2.4 0  10 2.4 0  0 2.6 0  0.2 2.6 0  0.4 2.6 0  0.6 2.6 0  0.8 2.6 0  1 2.6 0  1.2 2.6 0  1.4 2.6 0  1.6 2.6 0  1.8 2.6 0  2 2.6 0  2.2 2.6 0  2.4 2.6 0  2.6 2.6 0  2.8 2.6 0  3 2.6 0  3.2 2.6 0  3.4 2.6 0  3.6 2.6 0  3.8 2.6 0  4 2.6 0  4.2 2.6 0  4.4 2.6 0  4.6 2.6 0  4.8 2.6 0  5 2.6 0  5.2 2.6 0  5.4 2.6 0  5.6 2.6 0  5.8 2.6 0  6 2.6 0  6.2 2.6 0  6.4 2.6 0  6.6 2.6 0  6.8 2.6 0  7 2.6 0  7.2 2.6 0  7.4 2.6 0  7.6 2.6 0  7.8 2.6 0  8 2.6 0  8.199999999999999 2.6 0  8.4 2.6 0  8.6 2.6 0  8.800000000000001 2.6 0  9 2.6 0  9.199999999999999 2.6 0  9.4 2.6 0  9.6 2.6 0  9.800000000000001 2.6 0  10 2.6 0  0 2.8 0  0.2 2.8 0  0.4 2.8 0  0.6 2.8 0  0.8 2.8 0  1 2.8 0  1.2 2.8 0  1.4 2.8 0  1.6 2.8 0  1.8 2.8 0  2 2.8 0  2.2 2.8 0  2.4 2.8 0  2.6 2.8 0  2.8 2.8 0  3 2.8 0  3.2 2.8 0  3.4 2.8 0  3.6 2.8 0  3.8 2.8 0  4 2.8 0  4.2 2.8 0  4.4 2.8 0  4.6 2.8 0  4.8 2.8 0  5 2.8 0  5.2 2.8 0  5.4 2.8 0  5.6 2.8 0  5.8 2.8 0  6 2.8 0  6.2 2.8 0  6.4 2.8 0  6.6 2.8 0  6.8 2.8 0  7 2.8 0  7.2 2.8 0  7.4 2.8 0  7.6 2.8 0  7.8 2.8 0  8 2.8 0  8.199999999999999 2.8 0  8.4 2.8 0  8.6 2.8 0  8.800000000000001 2.8 0  9 2.8 0  9.199999999999999 2.8 0  9.4 2.8 0  9.6 2.8 0  9.800000000000001 2.8 0  10 2.8 0  0 3 0  0.2 3 0  0.4 3 0  0.6 3 0  0.8 3 0  1 3 0  1.2 3 0  1.4 3 0  1.6 3 0  1.8 3 0  2 3 0  2.2 3 0  2.4 3 0  2.6 3 0  2.8 3 0  3 3 0  3.2 3 0  3.4 3 0  3.6 3 0  3.8 3 0  4 3 0  4.2 3 0  4.4 3 0  4.6 3 0  4.8 3 0  5 3 0  5.2 3 0  5.4 3 0  5.6 3 0  5.8 3 0  6 3 0  6.2 3 0  6.4 3 0  6.6 3 0  6.8 3 0  7 3 0  7.2 3 0  7.4 3 0  7.6 3 0  7.8 3 0  8 3 0  8.199999999999999 3 0  8.4 3 0  8.6 3 0  8.800000000000001 3 0  9 3 0  9.199999999999999 3 0  9.4 3 0  9.6 3 0  9.800000000000001 3 0  10 3 0  0 3.2 0  0.2 3.2 0  0.4 3.2 0  0.6 3.2 0  0.8 3.2 0  1 3.2 0  1.2 3.2 0  1.4 3.2 0  1.6 3.2 0  1.8 3.2 0  2 3.2 0  2.2 3.2 0  2.4 3.2 0  2.6 3.2 0  2.8 3.2 0  3 3.2 0  3.2 3.2 0  3.4 3.2 0  3.6 3.2 0  3.8 3.2 0  4 3.2 0  4.2 3.2 0  4.4 3.2 0  4.6 3.2 0  4.8 3.2 0  5 3.2 0  5.2 3.2 0  5.4 3.2 0  5.6 3.2 0  5.8 3.2 0  6 3.2 0  6.2 3.2 0  6.4 3.2 0  6.6 3.2 0  6.8 3.2 0  7 3.2 0  7.2 3.2 0  7.4 3.2 0  7.6 3.2 0  7.8 3.2 0  8 3.2 0  8.199999999999999 3.2 0  8.4 3.2 0  8.6 3.2 0  8.800000000000001 3.2 0  9 3.2 0  9.199999999999999 3.2 0  9.4 3.2 0  9.6 3.2 0  9.800000000000001 3.2 0  10 3.2 0  0 3.4 0  0.2 3.4 0  0.4 3.4 0  0.6 3.4 0  0.8 3.4 0  1 3
[...]
<PointData  Scalars="f_9"> 
<DataArray  type="Float64"  Name="f_9"  format="ascii">-1.1119126602123504e-01  -7.8716166259837114e-02  -5.8737599623452041e-02  -4.5249902678232430e-02  -3.5595907349113283e-02  -2.8407747640544840e-02  -2.2902675584776138e-02  -1.8597539128086409e-02  -1.5176993793512863e-02  -1.2426255594126289e-02  -1.0193985622263419e-02  -8.3705093185073715e-03  -6.8744063046043075e-03  -5.6439338044326675e-03  -4.6313693971641963e-03  -3.7991816202675062e-03  -3.1173791081442383e-03  -2.5616383579139730e-03  -2.1119565632973535e-03  -1.7516646083135187e-03  -1.4666903627846564e-03  -1.2449972166252243e-03  -1.0761449663561514e-03  -9.5093419366019819e-04  -8.6110378343201436e-04  -7.9905572924928966e-04  -7.5758264914006735e-04  -7.2957173984007184e-04  -7.0765405408670912e-04  -6.8375939093828840e-04  -6.4852367044449834e-04  -5.9047577423760125e-04  -4.9490210096641402e-04  -3.4224623013824878e-04  -1.0584375522910742e-04  2.5128691168681548e-04  7.8098424284141232e-04  1.5563407068859862e-03  2.6806575599487427e-03  4.2998482610402356e-03  6.6193366777283179e-03  9.9264832851815830e-03  1.4619101971357410e-02  2.1239137314645398e-02  3.0507083144547670e-02  4.3345827193189211e-02  6.0870865004177134e-02  8.4307278448513906e-02  1.1477835536274276e-01  1.5293025837558452e-01  1.9921792816344294e-01  -1.4383066023902080e-01  -9.2107887644720152e-02  -6.3867145111634938e-02  -4.6242661660474617e-02  -3.4325244468135938e-02  -2.5835268496268028e-02  -1.9561147750947323e-02  -1.4796488331768743e-02  -1.1101429333437319e-02  -8.1884190398404076e-03  -5.8622706025972405e-03  -3.9863904652511668e-03  -2.4626808775761360e-03  -1.2190599252431304e-03  -2.0144676481226724e-04  6.3152804517233854e-04  1.3120946940554940e-03  1.8658051766133716e-03  2.3132599790853811e-03  2.6713407345762374e-03  2.9541058495727779e-03  3.1734540412234192e-03  3.3396277215950562e-03  3.4616071539990069e-03  3.5474331237181889e-03  3.6044880542856366e-03  3.6397616609192972e-03  3.6601266672385124e-03  3.6726526412401259e-03  3.6849918955124319e-03  3.7058813506168596e-03  3.7458194883274827e-03  3.8179998518973438e-03  3.9396146011167667e-03  4.1336870104518907e-03  4.4316553002361281e-03  4.8770178235422249e-03  5.5304681768152250e-03  6.4771041347418869e-03  7.8364868830787578e-03  9.7765413032802027e-03  1.2532469875109279e-02  1.6431864481341426e-02  2.1926740435650214e-02  2.9631694673279953e-02  4.0363778528091650e-02  5.5172460835370453e-02  7.5335582510794238e-02  1.0227894253399211e-01  1.3735688058999027e-01  1.8143018312049905e-01  -1.6604817275713807e-01  -1.0774383147332313e-01  -6.7939709780983251e-02  -4.5433146166148478e-02  -3.1201664887174668e-02  -2.1598083293177285e-02  -1.4832941875982190e-02  -9.9144972541865255e-03  -6.2488217062275095e-03  -3.4610423832694198e-03  -1.3053686595788988e-03  3.8417564967856556e-04  1.7224348614474940e-03  2.7905937541198344e-03  3.6471916741330100e-03  4.3352527552169996e-03  4.8870017906450097e-03  5.3270398477237631e-03  5.6745167610058184e-03  5.9446394314738192e-03  6.1497346546247117e-03  6.3000105751908793e-03  6.4041137635975319e-03  6.4695489343662071e-03  6.5030093532734510e-03  6.5106543604507338e-03  6.4983640273409242e-03  6.4719985895772582e-03  6.4376914533794327e-03  6.4022092902535164e-03  6.3734215331615642e-03  6.3609355085484341e-03  6.3769741464446738e-03  6.4376031564060115e-03  6.5644572072069435e-03  6.7871747614194509e-03  7.1468351087386984e-03  7.7008067891900902e-03  8.5295731863345940e-03  9.7463071483236598e-03  1.1510224882362969e-02  1.4045045171389789e-02  1.7664154813643432e-02  2.2804182211481117e-02  3.0068268739471046e-02  4.0278730352197811e-02  5.4534834892143016e-02  7.4263262618920689e-02  1.0123409427387728e-01  1.3749066329113876e-01  1.8509366129806157e-01  -1.8074162608224445e-01  -1.1935824512916866e-01  -7.6304457322072375e-02  -4.6309231208505788e-02  -2.9032355287986738e-02  -1.8049230082015470e-02  -1.0676902211270741e-02  -5.5520442127229329e-03  -1.8967442578031526e-03  7.6452469962809768e-04  2.7355214824283896e-03  4.2162845909487941e-03  5.3415991421358246e-03  6.2039960368208144e-03  6.8680563438029609e-03  7.3795661195181399e-03  7.7715030451761197e-03  8.0680181425670135e-03  8.2871213680575286e-03  8.4425155153928250e-03  8.5448635863902295e-03  8.6026762893185050e-03  8.6229442704193020e-03  8.6116001805374882e-03  8.5738705595889975e-03  8.5145619095496807e-03  8.4383163197841518e-03  8.3498679537798090e-03  8.2543317997103745e-03  8.1575601668238303e-03  8.0666108734701886e-03  7.9903848877811226e-03  7.9405119714199626e-03  7.9325930806196272e-03  7.9879513933910420e-03  8.1361047254947701e-03  8.4182573817810826e-03  8.8922278724290742e-03  9.6393913508342633e-03  1.0774434737312152e-02  1.2459010333071488e-02  1.4920735588490153e-02  1.8479406673962754e-02  2.3582703898732682e-02  3.0853888152039335e-02  4.1153619741221004e-02  5.5656282527932081e-02  7.5936649583462856e-02  1.0405303186700966e-01  1.4259391898212945e-01  1.9461118158481788e-01  -1.9045304362700810e-01  -1.2734557608822289e-01  -8.2949310519308608e-02  -5.1211098793440227e-02  -2.8878751474112632e-02  -1.5898117174149618e-02  -7.6501978531984165e-03  -2.1625104676050114e-03  1.5911058967549281e-03  4.2077063460015133e-03  6.0573922296776979e-03  7.3785856460176318e-03  8.3288292482081149e-03  9.0141355280539768e-03  9.5068661009330997e-03  9.8570218073674686e-03  1.0099553741717490e-02  1.0259185561338702e-02  1.0353639628434712e-02  1.0395820568890823e-02  1.0395308842351765e-02  1.0359393806373391e-02  1.0293798620065825e-02  1.0203200341391961e-02  1.0091617384277378e-02  9.9627169759890864e-03  9.8200837301868835e-03  9.6674848073131769e-03  9.5091662792983166e-03  9.3502189119457693e-03  9.1970599211590211e-03  9.0580912629316078e-03  8.9446162885435838e-03  8.8721275898776160e-03  8.8621231174986961e-03  8.9446701387005945e-03  9.1620241194814902e-03  9.5737312977327970e-03  1.0263811486915460e-02  1.1350846414977269e-02  1.3002105935868175e-02  1.5453246795655450e-02  1.9035626120417853e-02  2.4213870972130319e-02  3.1636965822332726e-02  4.2206569082396082e-02  5.7166116763955777e-02  7.8212655869917949e-02  1.0762866721626038e-01  1.4842013769564449e-01  2.0441825805116587e-01  -1.9693775400268854e-01  -1.3274654156779089e-01  -8.7616973689648034e-02  -5.5327466000315587e-02  -3.2004630854044883e-02  -1.5515695970918250e-02  -5.9018815832742539e-03  1.7594188276926742e-04  4.1687621742232256e-03  6.8443712964184637e-03  8.6555067595031412e-03  9.8854052195706324e-03  1.0717503361762285e-02  1.1273225511985526e-02  1.1634148015112235e-02  1.1855675344889913e-02  1.1975766163758535e-02  1.2020630544056011e-02  1.2008511823177010e-02  1.1952229168300020e-02  1.1860905447373074e-02  1.1741154043755427e-02  1.1597904885065558e-02  1.1434991125087635e-02  1.1255580600932213e-02  1.1062512785049085e-02  1.0858587965663464e-02  1.0646848205658650e-02  1.0430887858549303e-02  1.0215234543696716e-02  1.0005849692156923e-02  9.8108119287690469e-03  9.6412682409250435e-03  9.5127695591195570e-03  9.4471526111559300e-03  9.4751937381632127e-03  9.6403497149448580e-03  1.0004024924326839e-02  1.0652976079462506e-02  1.1709701505344236e-02  1.3346982565051320e-02  1.5808175088837390e-02  1.9435415799534714e-02  2.4708636281629733e-02  3.2299171058480965e-02  4.3142765884729366e-02  5.8537792511778250e-02  8.0275106880314889e-02  1.1080551201362555e-01  1.5344753088553570e-01  2.1262502776213407e-01  -2.0133602479160984e-01  -1.3640821446662041e-01  -9.0795216580232263e-02  -5.8263599837555864e-02  -3.4752456565215126e-02  -1.7669481609822589e-02  -5.5721268628016853e-03  1.4723836222366906e-03  5.8855005730147174e-03  8.7350535022799776e-03  1.0593554389299336e-02  1.1801824419868575e-02  1.2574372241119494e-02  1.3050539918986501e-02  1.3322592143687684e-02  1.3452374631857184e-02  1.3481684578141974e-02  1.3438934026491210e-02  1.3343524516567194e-02  1.3208764243001906e-02  1.3043837518662971e-02  1.2855149716129926e-02  1.2647258009895525e-02  1.2423528184207644e-02  1.2186613737123328e-02  1.1938825987026469e-02  1.1682447340800272e-02  1.1420031112368237e-02  1.1154728553485090e-02  1.0890686355340884e-02  1.0633565871479655e-02  1.0391249492458499e-02  1.0174821524711934e-02  9.9999430440741374e-03  9.8887861000483673e-03  9.8727574207435800e-03  9.9963324647388812e-03  1.0322446958703701e-02  1.0940068076713744e-02  1.1974808789973115e-02  1.3603780042540731e-02  1.6076326888730230e-02  1.9742905800065755e-02  2.5095179933780715e-02  3.2821495632110363e-02  4.3883321631985016e-02  5.9620046189605300e-02  8.1891787979779154e-02  1.1327260943659791e-01  1.5730957282291036e-01  2.1886336223627109e-01  -2.0437717823539769e-01  -1.3891972580025905e-01  -9.2950558128078772e-02  -6.0267994479475090e-02  -3.6744257504958661e-02  -1.9632648304124718e-02  -7.1580986015451070e-03  1.6716085920451046e-03  6.7887266557644420e-03  9.9523131957753152e-03  1.1948347656705502e-02  1.3202802693822653e-02  1.3971083935640009e-02  1.4414581222552493e-02  1.4638279594627429e-02  1.4711640030081373e-02  1.4681089465218898e-02  1.4577846760028199e-02  1.4422975729573554e-02  1.4230715486678846e-02  1.4010709299513905e-02  1.3769516094707654e-02  1.3511650148907818e-02  1.3240310424581358e-02  1.2957908934512895e-02  1.2666475227830319e-02  1.2367994652773138e-02  1.2064727512602100e-02  1.1759552431716525e-02  1.1456379221646064e-02  1.1160684208247767e-02  1.0880235062390243e-02  1.0626094178570362e-02  1.0414022010587581e-02  1.0266448107668337e-02  1.0215243030481552e-02  1.0305616031557283e-02  1.0601591263544033e-02  1.1193692930173530e-02  1.2209715811539821e-02  1.3829797348865819e-02  1.6307475615712285e-02  1.9999061590478880e-02  2.5404540155460731e-02  3.3224435467938657e-02  4.4438768838300904e-02  6.0416609417462561e-02  8.3068113345401859e-02  1.1505598184929888e-01  1.6009104074180286e-01  2.2334740566816916e-01  -2.0652811199559204e-01  -1.4067341173675196e-01  -9.4424673850812962e-02  -6.1622545404508566e-02  -3.8114187816658665e-02  -2.1085534363626670e-02  -8.6443183776787370e-03  4.4012510168377526e-04  6.8565809523628276e-03  1.0545340889760037e-02  1.2785485262232180e-02  1.4155533019481732e-02  1.4971977713302735e-02  1.5425673091673557e-02  1.5637550297794435e-02  1.5686310900603864e-02  1.5623950495548548e-02  1.5485111243038164e-02  1.5292972061660097e-02  1.5063066151516645e-02  1.4805805281278934e-02  1.4528175836596297e-02  1.4234896502812235e-02  1.3929224625222732e-02  1.3613535968421797e-02  1.3289764430250964e-02  1.2959765352187558e-02  1.2625653432403360e-02  1.2290161176064462e-02  1.1957065028193593e-02  1.1631733573496488e-02  1.1321866061657174e-02  1.1038511483047112e-02  1.0797490900325914e-02  1.0621392354860551e-02  1.0542373594638072e-02  1.0606100385926990e-02  1.0877277385503363e-02  1.1447408455552756e-02  1.2445673244330505e-02  1.4054153657775594e-02  1.6529125004898063e-02  2.0230795295856623e-02  2.5664809647302497e-02  3.3540151122244857e-02  4.4849947441367381e-02  6.0984439957088993e-02  8.3889531805321535e-02  1.1629094611081560e-01  1.6201512566718643e-01  2.2645641916702691e-01  -2.0809018077254551e-01  -1.4192777872135828e-01  -9.5451414389901915e-02  -6.2543770977351268e-02  -3.9044066532093122e-02  -2.2103265497666523e-02  -9.7736488751343827e-03  -7.3845278507436252e-04  5.8613058028464862e-03  1.0506063288411626e-02  1.3146113638971677e-02  1.4711980837151955e-02  1.5629458308247621e-02  1.6133497710358814e-02  1.6366484563429054e-02  1.6418829608996790e-02  1.6349371670080857e-02  1.6196918554772087e-02  1.5987245526971634e-02  1.5737523121831749e-02  1.5459197145633057e-02  1.5159900289927475e-02  1.4844744176691948e-02  1.4517211380855611e-02  1.4179790974754495e-02  1.3834455438114457e-02  1.3483049523176478e-02  1.3127646452945726e-02  1.2770920203813126e-02  1.2416582893302927e-02  1.2069942974989974e-02  1.1738653511448219e-02  1.1433741639262297e-02  1.1171042850146128e-02  1.0973210512747498e-02  1.0872537373627417e-02  1.0914918968355020e-02  1.1165419227863767e-02  1.1716080385086298e-02  1.2696872484629047e-02  1.4291030244568481e-02  1.6756516170634058e-02  2.0456035621326779e-02  2.5898996570415420e-02  3.3800184963098251e-02  4.5161928767707027e-02  6.1389517863499908e-02  8.4454309962129229e-02  1.1712661044748789e-01  1.6331375256745703e-01  2.2856252711842129e-01  -2.0926023521463888e-01  -1.4285351592276602e-01  -9.6187700123170683e-02  -6.3183572495389889e-02  -3.9680118588430804e-02  -2.2808351686604372e-02  -1.0588760923466356e-02  -1.6620904921182302e-03  4.8928729473791807e-03  9.6776845093438386e-03  1.3028140283357290e-02  1.4904040232588711e-02  1.5982495682396135e-02  1.6576890263358086e-02  1.6861578656753418e-02  1.6942717097125533e-02  1.6887843531513621e-02  1.6740911831169512e-02  1.6530871289397939e-02  1.6276902520216002e-02  1.5991745791459639e-02  1.5683875292447511e-02  1.5358950781190520e-02  1.5020809140816731e-02  1.4672163296505256e-02  1.4315120271672829e-02  1.3951597363450353e-02  1.3583696986054888e-02  1.3214092181181060e-02  1.2846473899914770e-02  1.2486117140424144e-02  1.2140636189268779e-02  1.1821020857382092e-02  1.1543078074583558e-02  1.1329450126691823e-02  1.1212447438963510e-02  1.1238027565789309e-02  1.1471383357372038e-02  1.2004786681249427e-02  1.2968589909390153e-02  1.4546644252478742e-02  1.6997892734536234e-02  2.0686595600464892e-02  2.6124636625545275e-02  3.4030780404447285e-02  4.5413835178204895e-02  6.1689830232071322e-02  8.4848302093154082e-02  1.1769110831912707e-01  1.6418196934282406e-01  2.2997219139410496e-01  -2.1016868892322252e-01  -1.4356424224691711e-01  -9.6738547376706188e-02  -6.3645569464785418e-02  -4.0127631902049814e-02  -2.3303861778073903e-02  -1.1174515706535951e-02  -2.3547418531247779e-03  4.1081550559300363e-03  8.8602799392665157e-03  1.2323409465324012e-02  1.4732315272513043e-02  1.6055023027749592e-02  1.6784304518750837e-02  1.7150836725759271e-02  1.7284018620434081e-02  1.7263010207287620e-02  1.7138285224761716e-02  1.6942708081468208e-02  1.6697911735636554e-02  1.6418216241695704e-02  1.6113133734428239e-02  1.5789015323953104e-02  1.5450161911251715e-02  1.5099597664674121e-02  1.4739635522938681e-02  1.4372324048766467e-02  1.3999842454893944e-02  1.3624899688581325e-02  1.3251191132049473e-02  1.2883971587840607e-02  1.2530815867178243e-02  1.2202659664931829e-02  1.1915245777463831e-02  1.1691147697977505e-02  1.1562609474570733e-02  1.1575534927390357e-02  1.1795091411579316e-02  1.2313578000337692e-02  1.3261465880223446e-02  1.4822879036754937e-02  1.7257287692321977e-02  2.0929896561403850e-02  2.6354217301080351e-02  3.4251765733884484e-02  4.5635963120116883e-02  6.1930577896522308e-02  8.5138230957270411e-02  1.1808322384907681e-01  1.6476862450179483e-01  2.3091705777837729e-01  -2.1090325974045174e-01  -1.4413642366868237e-01  -9.7174560471176882e-02  -6.3999942642603169e-02  -4.0459802137879461e-02  -2.3666123862003240e-02  -1.1605570608603162e-02  -2.8761642031907373e-03  3.4943303973075123e-03  8.1749087909374525e-03  1.1619026861868192e-02  1.4122344912935746e-02  1.5848868024598495e-02  1.6773446723799056e-02  1.7254734810655790e-02  1.7462581822414766e-02  1.7493076753878765e-02  1.7405306778106162e-02  1.7237054172150552e-02  1.7012955639790328e-02  1.6749244421159441e-02  1.6456686235163148e-02  1.6142470447987802e-02  1.5811466461577554e-02  1.5467086703579193e-02  1.5111908289742298e-02  1.4748155601257851e-02  1.4378118284261098e-02  1.4004565268896665e-02  1.3631211317704036e-02  1.3263296663516597e-02  1.2908352309188425e-02  1.2577244564938542e-02  1.2285624605520479e-02  1.2055955802907005e-02  1.1920358596873067e-02  1.1924607226228255e-02  1.2133745347719573e-02  1.2639973265064402e-02  1.3573719030744121e-02  1.5119168581371399e-02  1.7536038697679741e-02  2.1190093186756374e-02  2.6595921758160012e-02  3.4476972444079719e-02  4.5850002656185877e-02  6.2144435779782278e-02  8.5372419370076003e-02  1.1837436176337193e-01  1.6518092837570592e-01  2.3156338757859887e-01  -2.1152385219382819e-01  -1.4462214588584607e-01  -9.7543572284144939e-02  -6.4294277862126700e-02  -4.0726956114318924e-02  -2.3949400567116030e-02  -1.1938886125931620e-02  -3.2813429413057252e-03  3.0089409800050267e-03  7.6154606572573511e-03  1.1008114455643011e-02  1.3504962032548902e-02  1.5313011874493861e-02  1.6546658379507088e-02  1.7186298540470164e-02  1.7493008849181760e-02  1.7591919649846223e-02  1.7554460759618893e-02  1.7424815823263336e-02  1.7231347576805434e-02  1.6992606836498170e-02  1.6720860738638321e-02  1.6424297951610333e-02  1.6108465294573861e-02  1.5777239243029713e-02  1.5433514811786130e-02  1.5079730469618417e-02  1.4718313061569090e-02  1.4352109050520288e-02  1.3984862145229433e-02  1.3621800147760450e-02  1.3270405091437990e-02  1.2941461289721434e-02  1.2650507885904669e-02  1.2419869396976655e-02  1.2281504833655726e-02  1.2281010788602421e-02  1.2483247055197958e-02  1.2980239810876723e-02  1.3902278186815380e-02  1.5433484933855062e-02  1.7833653708666762e-02  2.1468867244853217e-02  2.6854438110385154e-02  3.4715198926998363e-02  4.6070366336436776e-02  6.2353564774848401e-02  8.5583977162473623e-02  1.1861370826540416e-01  1.6549294716351395e-01  2.3202625397826299e-01  -2.1207196241079104e-01  -1.4505730092463096e-01  -9.7878253638888330e-02  -6.4560967884905562e-02  -4.0963623330850130e-02  -2.4191720950718094e-02  -1.2215977090627501e-02  -3.6135421571388084e-03  2.6110971815979131e-03  7.1516522673468657e-03  1.0488594407276690e-02  1.2951683900384077e-02  1.4763676728741536e-02  1.6069242224914779e-02  1.6948019948291791e-02  1.7384868487035906e-02  1.7569879574167595e-02  1.7595317065284263e-02  1.7514366537994729e-02  1.7360156487234827e-02  1.7154068930055708e-02  1.6910165125946421e-02  1.6637815084613022e-02  1.6343362199432304e-02  1.6031227299034952e-02  1.5704678183754345e-02  1.5366404881508772e-02  1.5018996410432842e-02  1.4665392286262990e-02  1.4309373097921387e-02  1.3956155691900814e-02  1.3613168817935516e-02  1.3291105084683837e-02  1.3005376733141396e-02  1.2778149503361903e-02  1.2641195969861081e-02  1.2639904690545633e-02  1.2838915023251143e-02  1.3330034521003318e-02  1.4243357555653730e-02  1.5762870220828038e-02  1.8148340774176298e-02  2.1766020405448110e-02  2.7131712535705673e-02  3.4971263480851701e-02  4.6305739714431540e-02  6.2571942836707514e-02  8.5794334487241830e-02  1.1883363405882259e-01  1.6575400509853569e-01  2.3238295695533409e-01  -2.1257668230679957e-01  -1.4546685893866812e-01  -9.8201064541933697e-02  -6.4822138041956148e-02  -4.1193499714427789e-02  -2.4419603379324376e-02  -1.2466583863360090e-02  -3.9051264565903338e-03  2.2676098018206991e-03  6.7529253053539053e-03  1.0038865952606855e-02  1.2462805635004020e-02  1.4255754656616515e-02  1.5573381031623474e-02  1.6516554903255150e-02  1.7140614609263114e-02  1.7433993170745857e-02  1.7535149299616082e-02  1.7512197266250751e-02  1.7404829864360087e-02  1.7237980675344312e-02  1.7027865783283434e-02  1.6785245998940712e-02  1.6517393832385874e-02  1.6229362208717485e-02  1.5924850956676534e-02  1.5606841683151223e-02  1.5278112036917662e-02  1.4941711063603300e-02  1.4601465036685787e-02  1.4262582488210607e-02  1.3932436376739467e-02  1.3621620669291446e-02  1.3345409888568187e-02  1.3125796745914254e-02  1.2994350026206527e-02  1.2996229940874278e-02  1.3195831906696475e-02  1.3684717196325821e-02  1.4592751362827660e-02  1.6103738890599791e-02  1.8477358540410233e-02  2.2079932188448170e-02  2.7427597679065850e-02  3.5246957326556444e-02  4.6560495712336836e-02  6.2807460318335145e-02  8.6016340236667627e-02  1.1905430130677336e-01  1.6599565592769500e-01  2.3268390911541861e-01  -2.1305857858590077e-01  -1.4586829034626117e-01  -9.8527482932217483e-02  -6.5092896857922342e-02  -4.1432818607872499e-02  -2.4651477902271221e-02  -1.2711844180147275e-