<?xml version="1.0"?>
<VTKFile type="UnstructuredGrid"  version="0.1"  >
<UnstructuredGrid>
<Piece  NumberOfPoints="2601" NumberOfCells="5000">
<Points>
<DataArray  type="Float64"  NumberOfComponents="3"  format="ascii">-10 -10 0  -9.6 -10 0  -9.199999999999999 -10 0  -8.800000000000001 -10 0  -8.4 -10 0  -8 -10 0  -7.6 -10 0  -7.2 -10 0  -6.8 -10 0  -6.4 -10 0  -6 -10 0  -5.6 -10 0  -5.2 -10 0  -4.8 -10 0  -4.4 -10 0  -4 -10 0  -3.6 -10 0  -3.2 -10 0  -2.8 -10 0  -2.4 -10 0  -2 -10 0  -1.6 -10 0  -1.199999999999999 -10 0  -0.8000000000000007 -10 0  -0.4000000000000004 -10 0  0 -10 0  0.4000000000000004 -10 0  0.8000000000000007 -10 0  1.199999999999999 -10 0  1.6 -10 0  2 -10 0  2.4 -10 0  2.800000000000001 -10 0  3.199999999999999 -10 0  3.6 -10 0  4 -10 0  4.4 -10 0  4.800000000000001 -10 0  5.199999999999999 -10 0  5.6 -10 0  6 -10 0  6.399999999999999 -10 0  6.800000000000001 -10 0  7.199999999999999 -10 0  7.600000000000001 -10 0  8 -10 0  8.399999999999999 -10 0  8.800000000000001 -10 0  9.199999999999999 -10 0  9.600000000000001 -10 0  10 -10 0  -10 -9.6 0  -9.6 -9.6 0  -9.199999999999999 -9.6 0  -8.800000000000001 -9.6 0  -8.4 -9.6 0  -8 -9.6 0  -7.6 -9.6 0  -7.2 -9.6 0  -6.8 -9.6 0  -6.4 -9.6 0  -6 -9.6 0  -5.6 -9.6 0  -5.2 -9.6 0  -4.8 -9.6 0  -4.4 -9.6 0  -4 -9.6 0  -3.6 -9.6 0  -3.2 -9.6 0  -2.8 -9.6 0  -2.4 -9.6 0  -2 -9.6 0  -1.6 -9.6 0  -1.199999999999999 -9.6 0  -0.8000000000000007 -9.6 0  -0.4000000000000004 -9.6 0  0 -9.6 0  0.4000000000000004 -9.6 0  0.8000000000000007 -9.6 0  1.199999999999999 -9.6 0  1.6 -9.6 0  2 -9.6 0  2.4 -9.6 0  2.800000000000001 -9.6 0  3.199999999999999 -9.6 0  3.6 -9.6 0  4 -9.6 0  4.4 -9.6 0  4.800000000000001 -9.6 0  5.199999999999999 -9.6 0  5.6 -9.6 0  6 -9.6 0  6.399999999999999 -9.6 0  6.800000000000001 -9.6 0  7.199999999999999 -9.6 0  7.600000000000001 -9.6 0  8 -9.6 0  8.399999999999999 -9.6 0  8.800000000000001 -9.6 0  9.199999999999999 -9.6 0  9.600000000000001 -9.6 0  10 -9.6 0  -10 -9.199999999999999 0  -9.6 -9.199999999999999 0  -9.199999999999999 -9.199999999999999 0  -8.800000000000001 -9.199999999999999 0  -8.4 -9.199999999999999 0  -8 -9.199999999999999 0  -7.6 -9.199999999999999 0  -7.2 -9.199999999999999 0  -6.8 -9.199999999999999 0  -6.4 -9.199999999999999 0  -6 -9.199999999999999 0  -5.6 -9.199999999999999 0  -5.2 -9.199999999999999 0  -4.8 -9.199999999999999 0  -4.4 -9.199999999999999 0  -4 -9.199999999999999 0  -3.6 -9.199999999999999 0  -3.2 -9.199999999999999 0  -2.8 -9.199999999999999 0  -2.4 -9.199999999999999 0  -2 -9.199999999999999 0  -1.6 -9.199999999999999 0  -1.199999999999999 -9.199999999999999 0  -0.8000000000000007 -9.199999999999999 0  -0.4000000000000004 -9.199999999999999 0  0 -9.199999999999999 0  0.4000000000000004 -9.199999999999999 0  0.8000000000000007 -9.199999999999999 0  1.199999999999999 -9.199999999999999 0  1.6 -9.199999999999999 0  2 -9.199999999999999 0  2.4 -9.199999999999999 0  2.800000000000001 -9.199999999999999 0  3.199999999999999 -9.199999999999999 0  3.6 -9.199999999999999 0  4 -9.199999999999999 0  4.4 -9.199999999999999 0  4.800000000000001 -9.199999999999999 0  5.199999999999999 -9.199999999999999 0  5.6 -9.199999999999999 0  6 -9.199999999999999 0  6.399999999999999 -9.199999999999999 0  6.800000000000001 -9.199999999999999 0  7.199999999999999 -9.199999999999999 0  7.600000000000001 -9.199999999999999 0  8 -9.199999999999999 0  8.399999999999999 -9.199999999999999 0  8.800000000000001 -9.199999999999999 0  9.199999999999999 -9.199999999999999 0  9.600000000000001 -9.199999999999999 0  10 -9.199999999999999 0  -10 -8.800000000000001 0  -9.6 -8.800000000000001 0  -9.199999999999999 -8.800000000000001 0  -8.800000000000001 -8.800000000000001 0  -8.4 -8.800000000000001 0  -8 -8.800000000000001 0  -7.6 -8.800000000000001 0  -7.2 -8.800000000000001 0  -6.8 -8.800000000000001 0  -6.4 -8.800000000000001 0  -6 -8.800000000000001 0  -5.6 -8.800000000000001 0  -5.2 -8.800000000000001 0  -4.8 -8.800000000000001 0  -4.4 -8.800000000000001 0  -4 -8.800000000000001 0  -3.6 -8.800000000000001 0  -3.2 -8.800000000000001 0  -2.8 -8.800000000000001 0  -2.4 -8.800000000000001 0  -2 -8.800000000000001 0  -1.6 -8.800000000000001 0  -1.199999999999999 -8.800000000000001 0  -0.8000000000000007 -8.800000000000001 0  -0.4000000000000004 -8.800000000000001 0  0 -8.800000000000001 0  0.4000000000000004 -8.800000000000001 0  0.8000000000000007 -8.800000000000001 0  1.199999999999999 -8.800000000000001 0  1.6 -8.800000000000001 0  2 -8.800000000000001 0  2.4 -8.800000000000001 0  2.800000000000001 -8.800000000000001 0  3.199999999999999 -8.800000000000001 0  3.6 -8.800000000000001 0  4 -8.800000000000001 0  4.4 -8.800000000000001 0  4.800000000000001 -8.800000000000001 0  5.199999999999999 -8.800000000000001 0  5.6 -8.800000000000001 0  6 -8.800000000000001 0  6.399999999999999 -8.800000000000001 0  6.800000000000001 -8.800000000000001 0  7.199999999999999 -8.800000000000001 0  7.600000000000001 -8.800000000000001 0  8 -8.800000000000001 0  8.399999999999999 -8.800000000000001 0  8.800000000000001 -8.800000000000001 0  9.199999999999999 -8.800000000000001 0  9.600000000000001 -8.800000000000001 0  10 -8.800000000000001 0  -10 -8.4 0  -9.6 -8.4 0  -9.199999999999999 -8.4 0  -8.800000000000001 -8.4 0  -8.4 -8.4 0  -8 -8.4 0  -7.6 -8.4 0  -7.2 -8.4 0  -6.8 -8.4 0  -6.4 -8.4 0  -6 -8.4 0  -5.6 -8.4 0  -5.2 -8.4 0  -4.8 -8.4 0  -4.4 -8.4 0  -4 -8.4 0  -3.6 -8.4 0  -3.2 -8.4 0  -2.8 -8.4 0  -2.4 -8.4 0  -2 -8.4 0  -1.6 -8.4 0  -1.199999999999999 -8.4 0  -0.8000000000000007 -8.4 0  -0.4000000000000004 -8.4 0  0 -8.4 0  0.4000000000000004 -8.4 0  0.8000000000000007 -8.4 0  1.199999999999999 -8.4 0  1.6 -8.4 0  2 -8.4 0  2.4 -8.4 0  2.800000000000001 -8.4 0  3.199999999999999 -8.4 0  3.6 -8.4 0  4 -8.4 0  4.4 -8.4 0  4.800000000000001 -8.4 0  5.199999999999999 -8.4 0  5.6 -8.4 0  6 -8.4 0  6.399999999999999 -8.4 0  6.800000000000001 -8.4 0  7.199999999999999 -8.4 0  7.600000000000001 -8.4 0  8 -8.4 0  8.399999999999999 -8.4 0  8.800000000000001 -8.4 0  9.199999999999999 -8.4 0  9.600000000000001 -8.4 0  10 -8.4 0  -10 -8 0  -9.6 -8 0  -9.199999999999999 -8 0  -8.800000000000001 -8 0  -8.4 -8 0  -8 -8 0  -7.6 -8 0  -7.2 -8 0  -6.8 -8 0  -6.4 -8 0  -6 -8 0  -5.6 -8 0  -5.2 -8 0  -4.8 -8 0  -4.4 -8 0  -4 -8 0  -3.6 -8 0  -3.2 -8 0  -2.8 -8 0  -2.4 -8 0  -2 -8 0  -1.6 -8 0  -1.199999999999999 -8 0  -0.8000000000000007 -8 0  -0.4000000000000004 -8 0  0 -8 0  0.4000000000000004 -8 0  0.8000000000000007 -8 0  1.199999999999999 -8 0  1.6 -8 0  2 -8 0  2.4 -8 0  2.800000000000001 -8 0  3.199999999999999 -8 0  3.6 -8 0  4 -8 0  4.4 -8 0  4.800000000000001 -8 0  5.199999999999999 -8 0  5.6 -8 0  6 -8 0  6.399999999999999 -8 0  6.800000000000001 -8 0  7.199999999999999 -8 0  7.600000000000001 -8 0  8 -8 0  8.399999999999999 -8 0  8.800000000000001 -8 0  9.199999999999999 -8 0  9.600000000000001 -8 0  10 -8 0  -10 -7.6 0  -9.6 -7.6 0  -9.199999999999999 -7.6 0  -8.800000000000001 -7.6 0  -8.4 -7.6 0  -8 -7.6 0  -7.6 -7.6 0  -7.2 -7.6 0  -6.8 -7.6 0  -6.4 -7.6 0  -6 -7.6 0  -5.6 -7.6 0  -5.2 -7.6 0  -4.8 -7.6 0  -4.4 -7.6 0  -4 -7.6 0  -3.6 -7.6 0  -3.2 -7.6 0  -2.8 -7.6 0  -2.4 -7.6 0  -2 -7.6 0  -1.6 -7.6 0  -1.199999999999999 -7.6 0  -0.8000000000000007 -7.6 0  -0.4000000000000004 -7.6 0  0 -7.6 0  0.4000000000000004 -7.6 0  0.8000000000000007 -7.6 0  1.199999999999999 -7.6 0  1.6 -7.6 0  2 -7.6 0  2.4 -7.6 0  2.800000000000001 -7.6 0  3.199999999999999 -7.6 0  3.6 -7.6 0  4 -7.6 0  4.4 -7.6 0  4.800000000000001 -7.6 0  5.199999999999999 -7.6 0  5.6 -7.6 0  6 -7.6 0  6.399999999999999 -7.6 0  6.800000000000001 -7.6 0  7.199999999999999 -7.6 0  7.600000000000001 -7.6 0  8 -7.6 0  8.399999999999999 -7.6 0  8.800000000000001 -7.6 0  9.199999999999999 -7.6 0  9.600000000000001 -7.6 0  10 -7.6 0  -10 -7.2 0  -9.6 -7.2 0  -9.199999999999999 -7.2 0  -8.800000000000001 -7.2 0  -8.4 -7.2 0  -8 -7.2 0  -7.6 -7.2 0  -7.2 -7.2 0  -6.8 -7.2 0  -6.4 -7.2 0  -6 -7.2 0  -5.6 -7.2 0  -5.2 -7.2 0  -4.8 -7.2 0  -4.4 -7.2 0  -4 -7.2 0  -3.6 -7.2 0  -3.2 -7.2 0  -2.8 -7.2 0  -2.4 -7.2 0  -2 -7.2 0  -1.6 -7.2 0  -1.199999999999999 -7.2 0  -0.8000000000000007 -7.2 0  -0.4000000000000004 -7.2 0  0 -7.2 0  0.4000000000000004 -7.2 0  0.8000000000000007 -7.2 0  1.199999999999999 -7.2 0  1.6 -7.2 0  2 -7.2 0  2.4 -7.2 0  2.800000000000001 -7.2 0  3.199999999999999 -7.2 0  3.6 -7.2 0  4 -7.2 0  4.4 -7.2 0  4.800000000000001 -7.2 0  5.199999999999999 -7.2 0  5.6 -7.2 0  6 -7.2 0  6.399999999999999 -7.2 0  6.800000000000001 -7.2 0  7.199999999999999 -7.2 0  7.600000000000001 -7.2 0  8 -7.2 0  8.399999999999999 -7.2 0  8.800000000000001 -7.2 0  9.199999999999999 -7.2 0  9.600000000000001 -7.2 0  10 -7.2 0  -10 -6.8 0  -9.6 -6.8 0  -9.199999999999999 -6.8 0  -8.800000000000001 -6.8 0  -8.4 -6.8 0  -8 -6.8 0  -7.6 -6.8 0  -7.2 -6.8 0  -6.8 -6.8 0  -6.4 -6.8 0  -6 -6.8 0  -5.6 -6.8 0  -5.2 -6.8 0  -4.8 -6.8 0  -4.4 -6.8 0  -4 -6.8 0  -3.6 -6.8 0  -3.2 -6.8 0  -2.8 -6.8 0  -2.4 -6.8 0  -2 -6.8 0  -1.6 -6.8 0  -1.199999999999999 -6.8 0  -0.8000000000000007 -6.8 0  -0.4000000000000004 -6.8 0  0 -6.8 0  0.4000000000000004 -6.8 0  0.8000000000000007 -6.8 0  1.199999999999999 -6.8 0  1.6 -6.8 0  2 -6.8 0  2.4 -6.8 0  2.800000000000001 -6.8 0  3.199999999999999 -6.8 0  3.6 -6.8 0  4 -6.8 0  4.4 -6.8 0  4.800000000000001 -6.8 0  5.199999999999999 -6.8 0  5.6 -6.8 0  6 -6.8 0  6.399999999999999 -6.8 0  6.800000000000001 -6.8 0  7.199999999999999 -6.8 0  7.600000000000001 -6.8 0  8 -6.8 0  8.399999999999999 -6.8 0  8.800000000000001 -6.8 0  9.199999999999999 -6.8 0  9.600000000000001 -6.8 0  10 -6.8 0  -10 -6.4 0  -9.6 -6.4 0  -9.199999999999999 -6.4 0  -8.800000000000001 -6.4 0  -8.4 -6.4 0  -8 -6.4 0  -7.6 -6.4 0  -7.2 -6.4 0  -6.8 -6.4 0  -6.4 -6.4 0  -6 -6.4 0  -5.6 -6.4 0  -5.2 -6.4 0  -4.8 -6.4 0  -4.4 -6.4 0  -4 -6.4 0  -3.6 -6.4 0  -3.2 -6.4 0  -2.8 -6.4 0  -2.4 -6.4 0  -2 -6.4 0  -1.6 -6.4 0  -1.199999999999999 -6.4 0  -0.8000000000000007 -6.4 0  -0.4000000000000004 -6.4 0  0 -6.4 0
[...]
<PointData  Scalars="f_269"> 
<DataArray  type="Float64"  Name="f_269"  format="ascii">3.1464846235795605e-05  -2.1810170910684291e-04  4.0130556176661805e-04  -5.9519059209041608e-04  8.0326762344673757e-04  -1.0259408948781448e-03  1.2610443053112862e-03  -1.5040954814490818e-03  1.7488128405315450e-03  -1.9878769830625632e-03  2.2138371586859626e-03  -2.4200390865975387e-03  2.6014469247869110e-03  -2.7552465217717133e-03  2.8811472887743913e-03  -2.9813414351913246e-03  3.0601264742689781e-03  -3.1232433359418494e-03  3.1770214623705138e-03  -3.2274489513785631e-03  3.2792959908568295e-03  -3.3354125384084435e-03  3.3962971455842972e-03  -3.4599965031410444e-03  3.5223495790980726e-03  -3.5775429264342492e-03  3.6189006541501906e-03  -3.6398003452527659e-03  3.6345887751396784e-03  -3.5993712734839990e-03  3.5325659786269456e-03  -3.4351466001794522e-03  3.3105400865916465e-03  -3.1641932759268326e-03  3.0028679417486437e-03  -2.8337612965408238e-03  2.6635727441990842e-03  -2.4976453288001899e-03  2.3392997930748176e-03  -2.1894527307275771e-03  2.0465711420340127e-03  -1.9069693139202812e-03  1.7654067802577585e-03  -1.6159046792110837e-03  1.4526675405056120e-03  -1.2709829815330971e-03  1.0679738424342192e-03  -8.4309052408105460e-04  5.9819470681676996e-04  -3.3632257486645290e-04  4.8821625739505444e-05  -2.1349518082604323e-04  1.0613414669249669e-03  -1.9443616618460015e-03  2.8845769142996419e-03  -3.8952959051254212e-03  4.9782143580275121e-03  -6.1226815693435320e-03  7.3066617655241691e-03  -8.4992558502937163e-03  9.6644500414153119e-03  -1.0765581692094362e-02  1.1769910707230210e-02  -1.2652669304606307e-02  1.3400034284264012e-02  -1.4010614256100170e-02  1.4495248561521437e-02  -1.4875147200373586e-02  1.5178629313563861e-02  -1.5436910819163716e-02  1.5679522555148481e-02  -1.5929991150152853e-02  1.6202378399446268e-02  -1.6499156739029006e-02  1.6810714093889324e-02  -1.7116556896098003e-02  1.7388046101243015e-02  -1.7592289617838840e-02  1.7696655258102517e-02  -1.7673282710996309e-02  1.7502972978136275e-02  -1.7177919407052291e-02  1.6702903780232224e-02  -1.6094792312857778e-02  1.5380400323854597e-02  -1.4593019016607025e-02  1.3768081877135054e-02  -1.2938566590154497e-02  1.2130764757642003e-02  -1.1361000779363846e-02  1.0633750573493144e-02  -9.9414177745132358e-03  9.2657967194919501e-03  -8.5810189958763720e-03  7.8575759777069851e-03  -7.0668611390385530e-03  6.1856037886477170e-03  -5.1995793344719347e-03  4.1060757816233605e-03  -2.9147562702074399e-03  1.6468034341423690e-03  -3.3335373372966084e-04  3.4733180556437886e-04  -1.7191195103325898e-03  3.1548976862933323e-03  -4.6949983528574825e-03  6.3635439854787170e-03  -8.1640151952758234e-03  1.0077823414365243e-02  -1.2065978059240749e-02  1.4073589247933000e-02  -1.6036582594914618e-02  1.7889703640993376e-02  -1.9574712778277992e-02  2.1047645157096815e-02  -2.2284138732271801e-02  2.3282099363209508e-02  -2.4061338766625886e-02  2.4660237552179685e-02  -2.5129895407874255e-02  2.5526576332648914e-02  -2.5903491454952767e-02  2.6303053013082851e-02  -2.6750668016277721e-02  2.7250927839148842e-02  -2.7786719678165279e-02  2.8321383373892846e-02  -2.8803617189089581e-02  2.9174457439676678e-02  -2.9375370984277095e-02  2.9356346042919024e-02  -2.9082866897502391e-02  2.8540811413005823e-02  -2.7738596378527530e-02  2.6706274285118667e-02  -2.5491705072040408e-02  2.4154328877126478e-02  -2.2757396089570985e-02  2.1359723287234178e-02  -2.0008108789925774e-02  1.8731450385447875e-02  -1.7537373305030760e-02  1.6411830507772243e-02  -1.5321727753725591e-02  1.4220209187478038e-02  -1.3053872595913882e-02  1.1770917338279121e-02  -1.0329099362859865e-02  8.7023943917454733e-03  -6.8854494660059605e-03  4.8952165642764884e-03  -2.7695908911495185e-03  5.6340938677175293e-04  -4.1788191509479702e-04  2.0694767416540227e-03  -3.8143721775477190e-03  5.7121548358110771e-03  -7.7987775081264504e-03  1.0080440181826480e-02  -1.2531581385537182e-02  1.5097274175783517e-02  -1.7699695608271025e-02  2.0247779274358991e-02  -2.2648724140042865e-02  2.4819777985972350e-02  -2.6698676406073121e-02  2.8251303033070295e-02  -2.9475519647864722e-02  3.0400641881149458e-02  -3.1082636008127482e-02  3.1595701226553877e-02  -3.2021399733959253e-02  3.2436834161897569e-02  -3.2903503050427177e-02  3.3458371389247253e-02  -3.4108387814806282e-02  3.4829205237910547e-02  -3.5568282249959213e-02  3.6251939201254926e-02  -3.6795397701332430e-02  3.7114421210084250e-02  -3.7136953567667386e-02  3.6813152254279551e-02  -3.6122434089122413e-02  3.5076562203507543e-02  -3.3718348156853463e-02  3.2116146717589486e-02  -3.0354900060284608e-02  2.8524963170434774e-02  -2.6710247455790457e-02  2.4977313477288616e-02  -2.3366912475873303e-02  2.1889138976862128e-02  -2.0522859263388947e-02  1.9219491109698332e-02  -1.7910610875462196e-02  1.6518336672795859e-02  -1.4967053743996055e-02  1.3194863360996576e-02  -1.1163175113330547e-02  8.8631194282471296e-03  -6.3178983806200257e-03  3.5807552727918357e-03  -7.2881759570483104e-04  4.0995204223546973e-04  -2.0334918319472881e-03  3.7808376622826189e-03  -5.7316201702281994e-03  7.9346504748449963e-03  -1.0399978653920417e-02  1.3096293902480570e-02  -1.5954041189735580e-02  1.8873831830817849e-02  -2.1738993769947229e-02  2.4430536651779727e-02  -2.6842474599071759e-02  2.8895400098155537e-02  -3.0546443350939530e-02  3.1794249089923461e-02  -3.2678288975488218e-02  3.3272607674413417e-02  -3.3674867126735335e-02  3.3992200928736178e-02  -3.4325829869420593e-02  3.4756559982367416e-02  -3.5333162678620043e-02  3.6065239348132334e-02  -3.6921554749171512e-02  3.7834070132800685e-02  -3.8707121592242918e-02  3.9430480202092930e-02  -3.9894495553286710e-02  4.0005237096290752e-02  -3.9697547629409830e-02  3.8944210550167460e-02  -3.7759967544650316e-02  3.6199832266969108e-02  -3.4351930949521409e-02  3.2325854476721663e-02  -3.0238124332042877e-02  2.8196772067836374e-02  -2.6287153870222225e-02  2.4560951328073687e-02  -2.3029870454225197e-02  2.1664903658633005e-02  -2.0401252948334673e-02  1.9148232665593439e-02  -1.7802784086564195e-02  1.6264736590675323e-02  -1.4451709459443121e-02  1.2311598136777421e-02  -9.8309215202379840e-03  7.0378767843764616e-03  -3.9996730085421293e-03  8.1448752873108682e-04  -3.1845910383963946e-04  1.5857548672543900e-03  -3.0084932335564395e-03  4.6872302569666395e-03  -6.6846651578179620e-03  9.0158748556096284e-03  -1.1645116230226469e-02  1.4489644659869379e-02  -1.7430029125198927e-02  2.0325547734612433e-02  -2.3032547326674549e-02  2.5423242241043420e-02  -2.7402366771991520e-02  2.8919391299788350e-02  -2.9974623020553360e-02  3.0618354302942397e-02  -3.0943179079597118e-02  3.1070538515250531e-02  -3.1133351800944866e-02  3.1257126783299581e-02  -3.1542154561519355e-02  3.2049242281056572e-02  -3.2790951087534284e-02  3.3729547449497639e-02  -3.4781951340274307e-02  3.5831000632970407e-02  -3.6741480912869738e-02  3.7378713259829777e-02  -3.7627139997073726e-02  3.7406348337650705e-02  -3.6682324511407204e-02  3.5472387624438252e-02  -3.3843122765030972e-02  3.1901596745148711e-02  -2.9781064955567302e-02  2.7623136247062408e-02  -2.5558850301191847e-02  2.3691271573409157e-02  -2.2081994787977153e-02  2.0743417861087712e-02  -1.9637843666146824e-02  1.8683531210601099e-02  -1.7766859461492646e-02  1.6758925008681213e-02  -1.5534283880678785e-02  1.3989252388618891e-02  -1.2057242586446240e-02  9.7190160242396073e-03  -7.0064385465377441e-03  3.9992117432923625e-03  -8.1502099892118054e-04  1.4985872678190614e-04  -7.5802964774078019e-04  1.5541422374098063e-03  -2.6604224592667999e-03  4.1543447449065695e-03  -6.0570757119976998e-03  8.3296826384432511e-03  -1.0877633044352679e-02  1.3562969634315799e-02  -1.6222487569482039e-02  1.8689413642907503e-02  -2.0815604644506745e-02  2.2491210322873108e-02  -2.3659095594047570e-02  2.4322038274252625e-02  -2.4541713542177684e-02  2.4429607466432874e-02  -2.4131113404468881e-02  2.3805003833306308e-02  -2.3601107015008733e-02  2.3639264868532878e-02  -2.3992471964467507e-02  2.4676519162390852e-02  -2.5647569621210863e-02  2.6808001918995798e-02  -2.8019716247335621e-02  2.9123071506760453e-02  -2.9958845307119984e-02  3.0390192369820022e-02  -3.0321576775322635e-02  2.9712070124818968e-02  -2.8581183461857375e-02  2.7006428967770068e-02  -2.5112946331361272e-02  2.3056621396266238e-02  -2.1003020940093473e-02  1.9105043352025553e-02  -1.7482361788619147e-02  1.6205489250147451e-02  -1.5286658233856491e-02  1.4678768881660731e-02  -1.4282548017086935e-02  1.3960930531315736e-02  -1.3558679468465762e-02  1.2924539729749858e-02  -1.1932870983887553e-02  1.0501777130965270e-02  -8.6052317635775533e-03  6.2775256635563851e-03  -3.6094190358982631e-03  7.3652418793024408e-04  7.8654206355309721e-05  -3.6497555215067438e-04  4.3044563720263083e-04  -1.3074788498044441e-04  -6.2695316555211669e-04  1.8707080635722247e-03  -3.5594079193449414e-03  5.5879433428485748e-03  -7.8011885475898013e-03  1.0014886610063582e-02  -1.2040561331119417e-02  1.3711026295652210e-02  -1.4902979503747634e-02  1.5553573103341262e-02  -1.5668677718168815e-02  1.5321704498895323e-02  -1.4643148635585119e-02  1.3802295874688442e-02  -1.2983612897182492e-02  1.2361074478271970e-02  -1.2073964631426607e-02  1.2207485486412536e-02  -1.2780845638433987e-02  1.3744469169403906e-02  -1.4986710439996706e-02  1.6349150037231988e-02  -1.7648365628048023e-02  1.8701179126588793e-02  -1.9349902934804868e-02  1.9484107898090287e-02  -1.9055914594341188e-02  1.8086701495150882e-02  -1.6664305677538512e-02  1.4931101030306093e-02  -1.3064595394653036e-02  1.1253218224530785e-02  -9.6706327831314678e-03  8.4521099304727728e-03  -7.6762165284163528e-03  7.3543393716606681e-03  -7.4294862247615409e-03  7.7845276410213752e-03  -8.2587429618439546e-03  8.6703898473652584e-03  -8.8421871204958768e-03  8.6261992614022880e-03  -7.9246931450683948e-03  6.7040923449959121e-03  -5.0001046920503858e-03  2.9133144988886645e-03  -5.9584494387200345e-04  -3.4148294625418985e-04  1.6571508144089251e-03  -2.7192494869794017e-03  3.3614073797912673e-03  -3.4752699333138199e-03  3.0255000811348067e-03  -2.0547207735446228e-03  6.7771870509976916e-04  9.3429263659728073e-04  -2.5771835107876377e-03  4.0419541926757672e-03  -5.1434543675934951e-03  5.7458202871682141e-03  -5.7811264061478854e-03  5.2586827889196455e-03  -4.2636978991660327e-03  2.9454912015555363e-03  -1.4968793155150301e-03  1.2757508457468915e-04  9.6473641085034441e-04  -1.6216608446490862e-03  1.7459416102719146e-03  -1.3148814098568554e-03  3.8348992338821771e-04  9.2307617328890514e-04  -2.4267395448377871e-03  3.9210223532426154e-03  -5.1994829111434741e-03  6.0841521925761553e-03  -6.4500534866679775e-03  6.2424279798391092e-03  -5.4842936481672971e-03  4.2732963493285403e-03  -2.7682866695183535e-03  1.1674713464289669e-03  3.1885162157719221e-04  -1.4972189091566840e-03  2.2176049526490050e-03  -2.3940381487848710e-03  2.0163908284793067e-03  -1.1517192600343056e-03  -6.5030608528811372e-05  1.4496713499350174e-03  -2.7942074324587771e-03  3.8955504619733712e-03  -4.5835608623660852e-03  4.7445534026512694e-03  -4.3370285716663130e-03  3.3974626810276457e-03  -2.0353588830019720e-03  4.1824078037780893e-04  6.0813034217199941e-04  -2.9682398162657214e-03  5.0429436220684300e-03  -6.6443810413254418e-03  7.6490211231317476e-03  -8.0143015780170940e-03  7.7841201664819830e-03  -7.0824238720108212e-03  6.0957802837871737e-03  -5.0473331004109306e-03  4.1657302259912174e-03  -3.6533054508162549e-03  3.6578973511687271e-03  -4.2521881820150337e-03  5.4234095623056557e-03  -7.0748339926448196e-03  9.0388477595023265e-03  -1.1099805624153657e-02  1.3023520323264218e-02  -1.4589325985958504e-02  1.5620299984418010e-02  -1.6007481286728506e-02  1.5724750235636874e-02  -1.4832320778995182e-02  1.3468364571920893e-02  -1.1829920952440903e-02  1.0145722302477215e-02  -8.6446779111323015e-03  7.5243571659510478e-03  -6.9238129869451668e-03  6.9044885507565205e-03  -7.4418368179284110e-03  8.4288068514788983e-03  -9.6907162801596145e-03  1.1009461037842370e-02  -1.2153727194613873e-02  1.2911043026209979e-02  -1.3117255934913497e-02  1.2679373348040325e-02  -1.1588620801950144e-02  9.9219175741299698e-03  -7.8315657423420372e-03  5.5245716084966227e-03  -3.2344465944085664e-03  1.1893703483288999e-03  4.1890007492139850e-04  -1.4610939550150461e-03  1.8878750094219671e-03  -1.7362719257685206e-03  1.1242071836228499e-03  -2.3387938895177629e-04  -8.4737690329163881e-04  4.1444265240240460e-03  -7.1258144937202507e-03  9.5832960379051754e-03  -1.1379017151409314e-02  1.2463725803370523e-02  -1.2882789403978773e-02  1.2769192709798281e-02  -1.2324483644996642e-02  1.1790294197341721e-02  -1.1414361861524381e-02  1.1415734143162548e-02  -1.1953951392210846e-02  1.3106454927839252e-02  -1.4857334574522547e-02  1.7098967665778075e-02  -1.9646325946949459e-02  2.2261981802749381e-02  -2.4688371467223275e-02  2.6682873117326898e-02  -2.8050869989817772e-02  2.8672245943535880e-02  -2.8517665304411972e-02  2.7652395783475565e-02  -2.6227148721098045e-02  2.4457198945512584e-02  -2.2592660647042739e-02  2.0884013559349334e-02  -1.9547627804660548e-02  1.8736035674280515e-02  -1.8517044708343953e-02  1.8864568404970274e-02  -1.9662436843167673e-02  2.0720661503098873e-02  -2.1801913060102703e-02  2.2654564029111198e-02  -2.3047743761421702e-02  2.2803575987195464e-02  -2.1822157041916698e-02  2.0095832444990996e-02  -1.7710803584379761e-02  1.4835840965374698e-02  -1.1699656431639565e-02  8.5600485511869440e-03  -5.6690684111893961e-03  3.2390011676231424e-03  -1.4138461280577448e-03  2.5022081706302412e-04  2.8968368896815726e-04  -3.3212884254414367e-04  7.3662076266265032e-05  1.0315593364046880e-03  -5.0494168397087584e-03  8.7235639769024792e-03  -1.1826959964257150e-02  1.4208736875890096e-02  -1.5813909678666742e-02  1.6689893387499474e-02  -1.6978933884196898e-02  1.6897498913767756e-02  -1.6705471882105107e-02  1.6669395241101590e-02  -1.7024829916832400e-02  1.7943018683134696e-02  -1.9506448591972810e-02  2.1696681547346424e-02  -2.4396132377383268e-02  2.7403552381408503e-02  -3.0461088550120072e-02  3.3289193975006764e-02  -3.5624583450770839e-02  3.7256008595585428e-02  -3.8052926949551688e-02  3.7983117900911779e-02  -3.7116820656028532e-02  3.5616825382986182e-02  -3.3715883256009604e-02  3.1684547458769592e-02  -2.9793874979596048e-02  2.8278126486601295e-02  -2.7302601734566136e-02  2.6941040244516483e-02  -2.7165699328322229e-02  2.7851475119981140e-02  -2.8793497869405150e-02  2.9735776603343440e-02  -3.0406946172911009e-02  3.0558191115468959e-02  -2.9998120919863862e-02  2.8619790724569133e-02  -2.6416143294027035e-02  2.3481742547314572e-02  -2.0000557034405956e-02  1.6221472763447646e-02  -1.2424904896857603e-02  8.8851035653337296e-03  -5.8333419703906434e-03  3.4270533952569411e-03  -1.7291641232372043e-03  7.0046490463556918e-04  -2.0606760057834681e-04  3.5053522047180297e-05  -1.1403602315093238e-03  5.5831112611200119e-03  -9.6567926739861299e-03  1.3117524715255019e-02  -1.5803078681313490e-02  1.7654005333746427e-02  -1.8720622456815710e-02  1.9154903736710225e-02  -1.9188390806144186e-02  1.9099175094391973e-02  -1.9172501741550566e-02  1.9660425853958146e-02  -2.0746081962410790e-02  2.2517491926684608e-02  -2.4954522547770343e-02  2.7930792840734523e-02  -3.1230271640814444e-02  3.4576282553645157e-02  -3.7668924264946849e-02  4.0225754696384113e-02  -4.2020137933068906e-02  4.2911974253899393e-02  -4.2866582674071611e-02  4.1959136745824674e-02  -4.0364044049453374e-02  3.8330733101445053e-02  -3.6149183529716508e-02  3.4109947528307503e-02  -3.2464169188028733e-02  3.1389108306214553e-02  -3.0963916732758241e-02  3.1159002948577708e-02  -3.1840448790027509e-02  3.2788868521895616e-02  -3.3730111278240292e-02  3.4373576114995918e-02  -3.4452860237270670e-02  3.3763139392041057e-02  -3.2190129161284733e-02  2.9726635294916520e-02  -2.6474410406583129e-02  2.2631057952086357e-02  -1.8463783727849719e-02  1.4273606417570786e-02  -1.0354952755443465e-02  6.9561983089936382e-03  -4.2465845927524629e-03  2.2940647047044889e-03  -1.0571245275290554e-03  3.9170128137233369e-04  -7.2241873054702875e-05  1.1635868956331008e-03  -5.6952969706320694e-03  9.8355519737152609e-03  -1.3325803061068529e-02  1.5994304173130160e-02  -1.7778572445634279e-02  1.8732814437026263e-02  -1.9019299902038961e-02  1.8884875726961878e-02  -1.8625859293709735e-02  1.8546150942045460e-02  -1.8914339048706440e-02  1.9925709837090959e-02  -2.1674398311109611e-02  2.4139519780184394e-02  -2.7187195625477653e-02  3.0588197628378205e-02  -3.4048783601014466e-02  3.7250480180184294e-02  -3.9893335827622639e-02  4.1736689061234962e-02  -4.2631838753310829e-02  4.2542118605273245e-02  -4.1547612365438275e-02  3.9833861634886260e-02  -3.7666122633486926e-02  3.5352718338808188e-02  -3.3202534102534480e-02  3.1482511212071837e-02  -3.0380992863188769e-02  2.9981970580003535e-02  -3.0253777562126587e-02  3.1053785251507329e-02  -3.2148454938774731e-02  3.3245981044779230e-02  -3.4037028192938731e-02  3.4237948972355742e-02  -3.3630527579334664e-02  3.2092772570057472e-02  -2.9616514701846022e-02  2.6309382945679190e-02  -2.2380883193207687e-02  1.8114493658526742e-02  -1.3829616619736657e-02  9.8386232796843116e-03  -6.4049040643648384e-03  3.7076981423105927e-03  -1.8185419936579553e-03  6.9257653650653785e-04  -1.7590554015170775e-04  2.7987253085023968e-05  -1.1025567005152604e-03  5.3924737141649182e-03  -9.2715838013006247e-03  1.2468874322440579e-02  -1.4804941012421175e-02  1.6215688835594301e-02  -1.6760163615219911e-02  1.6611439532791709e-02  -1.6031821434241561e-02  1.5335781108924766e-02  -1.4845736214145304e-02  1.4846766015101971e-02  -1.5546504614676918e-02  1.7045738946518275e-02  -1.9323764357038004e-02  2.2240517754462667e-02  -2.5555197294598542e-02  2.8958806652187224e-02  -3.2116143782928583e-02  3.4711453145060363e-02  -3.6491455451067710e-02  3.7299830052094793e-02  -3.7098402132878995e-02  3.5972117797102438e-02  -3.4117122917332494e-02  3.1813588522894759e-02  -2.9387026250761599e-02  2.7163422341875527e-02  -2.5424369966237245e-02  2.4368379550324459e-02  -2.4083695609395401e-02  2.4536363570372755e-02  -2.5575189338036763e-02  2.6952907410037402e-02  -2.8360640639880707e-02  2.9470903840564788e-02  -2.9983226353366244e-02  2.9666107784257989e-02  -2.8389526038580828e-02  2.6143517651250305e-02  -2.3040268774475410e-02  1.9299425964625836e-02  -1.5218647064194348e-02  1.1133445186688871e-02  -7.3718533905106007e-03  4.2101509026859531e-03  -1.8357453719887961e-03  3.2231985987616761e-04  3.7933596320859737e-04  -4.3355144596116596e-04  9.6131994917647432e-05  9.6989814656079179e-04  -4.7368736723274220e-03  8.0765626804427532e-03  -1.0707554981259231e-02  1.2444491149092881e-02  -1.3222908333932753e-02  1.3107443133236503e-02  -1.2282264262857103e-02  1.1025055368440111e-02  -9.6681340229996006e-03  8.5520645291932585e-03  -7.9781561093162368e-03  8.1663913804281597e-03  -9.2245820200453684e-03  1.1133002085299396e-02  -1.3746617484928092e-02  1.6814606467235940e-02  -2.0014484193967074e-02  2.2996132950057598e-02  -2.5429674961337991e-02  2.7050595542796478e-02  -2.7695902612585487e-02  2.7326343359891505e-02  -2.6031618893923948e-02  2.4017879353639440e-02  -2.1579222445640828e-02  1.9057121421772179e-02  -1.6793370869635265e-02  1.5083031451175033e-02  -1.4133854541921419e-02  1.4037775258827961e-02  -1.4758399713816626e-02  1.6136209519817445e-02  -1.7910765829497074e-02  1.9756853877245552e-02  -2.1329588584575246e-02  2.2312267439184671e-02  -2.2460378345451247e-02  2.1635699531195495e-02  -1.9825793199915516e-02  1.7146206117583385e-02  -1.3825072299744860e-02  1.0172236369961866e-02  -6.5371483314500640e-03  3.2613268374168253e-03  -6.3193604496380106e-04  -1.1571321768086330e-03  2.0313130143169884e-03