<?xml version="1.0"?>
<VTKFile type="UnstructuredGrid"  version="0.1"  >
<UnstructuredGrid>
<Piece  NumberOfPoints="2601" NumberOfCells="5000">
<Points>
<DataArray  type="Float64"  NumberOfComponents="3"  format="ascii">-10 -10 0  -9.6 -10 0  -9.199999999999999 -10 0  -8.800000000000001 -10 0  -8.4 -10 0  -8 -10 0  -7.6 -10 0  -7.2 -10 0  -6.8 -10 0  -6.4 -10 0  -6 -10 0  -5.6 -10 0  -5.2 -10 0  -4.8 -10 0  -4.4 -10 0  -4 -10 0  -3.6 -10 0  -3.2 -10 0  -2.8 -10 0  -2.4 -10 0  -2 -10 0  -1.6 -10 0  -1.199999999999999 -10 0  -0.8000000000000007 -10 0  -0.4000000000000004 -10 0  0 -10 0  0.4000000000000004 -10 0  0.8000000000000007 -10 0  1.199999999999999 -10 0  1.6 -10 0  2 -10 0  2.4 -10 0  2.800000000000001 -10 0  3.199999999999999 -10 0  3.6 -10 0  4 -10 0  4.4 -10 0  4.800000000000001 -10 0  5.199999999999999 -10 0  5.6 -10 0  6 -10 0  6.399999999999999 -10 0  6.800000000000001 -10 0  7.199999999999999 -10 0  7.600000000000001 -10 0  8 -10 0  8.399999999999999 -10 0  8.800000000000001 -10 0  9.199999999999999 -10 0  9.600000000000001 -10 0  10 -10 0  -10 -9.6 0  -9.6 -9.6 0  -9.199999999999999 -9.6 0  -8.800000000000001 -9.6 0  -8.4 -9.6 0  -8 -9.6 0  -7.6 -9.6 0  -7.2 -9.6 0  -6.8 -9.6 0  -6.4 -9.6 0  -6 -9.6 0  -5.6 -9.6 0  -5.2 -9.6 0  -4.8 -9.6 0  -4.4 -9.6 0  -4 -9.6 0  -3.6 -9.6 0  -3.2 -9.6 0  -2.8 -9.6 0  -2.4 -9.6 0  -2 -9.6 0  -1.6 -9.6 0  -1.199999999999999 -9.6 0  -0.8000000000000007 -9.6 0  -0.4000000000000004 -9.6 0  0 -9.6 0  0.4000000000000004 -9.6 0  0.8000000000000007 -9.6 0  1.199999999999999 -9.6 0  1.6 -9.6 0  2 -9.6 0  2.4 -9.6 0  2.800000000000001 -9.6 0  3.199999999999999 -9.6 0  3.6 -9.6 0  4 -9.6 0  4.4 -9.6 0  4.800000000000001 -9.6 0  5.199999999999999 -9.6 0  5.6 -9.6 0  6 -9.6 0  6.399999999999999 -9.6 0  6.800000000000001 -9.6 0  7.199999999999999 -9.6 0  7.600000000000001 -9.6 0  8 -9.6 0  8.399999999999999 -9.6 0  8.800000000000001 -9.6 0  9.199999999999999 -9.6 0  9.600000000000001 -9.6 0  10 -9.6 0  -10 -9.199999999999999 0  -9.6 -9.199999999999999 0  -9.199999999999999 -9.199999999999999 0  -8.800000000000001 -9.199999999999999 0  -8.4 -9.199999999999999 0  -8 -9.199999999999999 0  -7.6 -9.199999999999999 0  -7.2 -9.199999999999999 0  -6.8 -9.199999999999999 0  -6.4 -9.199999999999999 0  -6 -9.199999999999999 0  -5.6 -9.199999999999999 0  -5.2 -9.199999999999999 0  -4.8 -9.199999999999999 0  -4.4 -9.199999999999999 0  -4 -9.199999999999999 0  -3.6 -9.199999999999999 0  -3.2 -9.199999999999999 0  -2.8 -9.199999999999999 0  -2.4 -9.199999999999999 0  -2 -9.199999999999999 0  -1.6 -9.199999999999999 0  -1.199999999999999 -9.199999999999999 0  -0.8000000000000007 -9.199999999999999 0  -0.4000000000000004 -9.199999999999999 0  0 -9.199999999999999 0  0.4000000000000004 -9.199999999999999 0  0.8000000000000007 -9.199999999999999 0  1.199999999999999 -9.199999999999999 0  1.6 -9.199999999999999 0  2 -9.199999999999999 0  2.4 -9.199999999999999 0  2.800000000000001 -9.199999999999999 0  3.199999999999999 -9.199999999999999 0  3.6 -9.199999999999999 0  4 -9.199999999999999 0  4.4 -9.199999999999999 0  4.800000000000001 -9.199999999999999 0  5.199999999999999 -9.199999999999999 0  5.6 -9.199999999999999 0  6 -9.199999999999999 0  6.399999999999999 -9.199999999999999 0  6.800000000000001 -9.199999999999999 0  7.199999999999999 -9.199999999999999 0  7.600000000000001 -9.199999999999999 0  8 -9.199999999999999 0  8.399999999999999 -9.199999999999999 0  8.800000000000001 -9.199999999999999 0  9.199999999999999 -9.199999999999999 0  9.600000000000001 -9.199999999999999 0  10 -9.199999999999999 0  -10 -8.800000000000001 0  -9.6 -8.800000000000001 0  -9.199999999999999 -8.800000000000001 0  -8.800000000000001 -8.800000000000001 0  -8.4 -8.800000000000001 0  -8 -8.800000000000001 0  -7.6 -8.800000000000001 0  -7.2 -8.800000000000001 0  -6.8 -8.800000000000001 0  -6.4 -8.800000000000001 0  -6 -8.800000000000001 0  -5.6 -8.800000000000001 0  -5.2 -8.800000000000001 0  -4.8 -8.800000000000001 0  -4.4 -8.800000000000001 0  -4 -8.800000000000001 0  -3.6 -8.800000000000001 0  -3.2 -8.800000000000001 0  -2.8 -8.800000000000001 0  -2.4 -8.800000000000001 0  -2 -8.800000000000001 0  -1.6 -8.800000000000001 0  -1.199999999999999 -8.800000000000001 0  -0.8000000000000007 -8.800000000000001 0  -0.4000000000000004 -8.800000000000001 0  0 -8.800000000000001 0  0.4000000000000004 -8.800000000000001 0  0.8000000000000007 -8.800000000000001 0  1.199999999999999 -8.800000000000001 0  1.6 -8.800000000000001 0  2 -8.800000000000001 0  2.4 -8.800000000000001 0  2.800000000000001 -8.800000000000001 0  3.199999999999999 -8.800000000000001 0  3.6 -8.800000000000001 0  4 -8.800000000000001 0  4.4 -8.800000000000001 0  4.800000000000001 -8.800000000000001 0  5.199999999999999 -8.800000000000001 0  5.6 -8.800000000000001 0  6 -8.800000000000001 0  6.399999999999999 -8.800000000000001 0  6.800000000000001 -8.800000000000001 0  7.199999999999999 -8.800000000000001 0  7.600000000000001 -8.800000000000001 0  8 -8.800000000000001 0  8.399999999999999 -8.800000000000001 0  8.800000000000001 -8.800000000000001 0  9.199999999999999 -8.800000000000001 0  9.600000000000001 -8.800000000000001 0  10 -8.800000000000001 0  -10 -8.4 0  -9.6 -8.4 0  -9.199999999999999 -8.4 0  -8.800000000000001 -8.4 0  -8.4 -8.4 0  -8 -8.4 0  -7.6 -8.4 0  -7.2 -8.4 0  -6.8 -8.4 0  -6.4 -8.4 0  -6 -8.4 0  -5.6 -8.4 0  -5.2 -8.4 0  -4.8 -8.4 0  -4.4 -8.4 0  -4 -8.4 0  -3.6 -8.4 0  -3.2 -8.4 0  -2.8 -8.4 0  -2.4 -8.4 0  -2 -8.4 0  -1.6 -8.4 0  -1.199999999999999 -8.4 0  -0.8000000000000007 -8.4 0  -0.4000000000000004 -8.4 0  0 -8.4 0  0.4000000000000004 -8.4 0  0.8000000000000007 -8.4 0  1.199999999999999 -8.4 0  1.6 -8.4 0  2 -8.4 0  2.4 -8.4 0  2.800000000000001 -8.4 0  3.199999999999999 -8.4 0  3.6 -8.4 0  4 -8.4 0  4.4 -8.4 0  4.800000000000001 -8.4 0  5.199999999999999 -8.4 0  5.6 -8.4 0  6 -8.4 0  6.399999999999999 -8.4 0  6.800000000000001 -8.4 0  7.199999999999999 -8.4 0  7.600000000000001 -8.4 0  8 -8.4 0  8.399999999999999 -8.4 0  8.800000000000001 -8.4 0  9.199999999999999 -8.4 0  9.600000000000001 -8.4 0  10 -8.4 0  -10 -8 0  -9.6 -8 0  -9.199999999999999 -8 0  -8.800000000000001 -8 0  -8.4 -8 0  -8 -8 0  -7.6 -8 0  -7.2 -8 0  -6.8 -8 0  -6.4 -8 0  -6 -8 0  -5.6 -8 0  -5.2 -8 0  -4.8 -8 0  -4.4 -8 0  -4 -8 0  -3.6 -8 0  -3.2 -8 0  -2.8 -8 0  -2.4 -8 0  -2 -8 0  -1.6 -8 0  -1.199999999999999 -8 0  -0.8000000000000007 -8 0  -0.4000000000000004 -8 0  0 -8 0  0.4000000000000004 -8 0  0.8000000000000007 -8 0  1.199999999999999 -8 0  1.6 -8 0  2 -8 0  2.4 -8 0  2.800000000000001 -8 0  3.199999999999999 -8 0  3.6 -8 0  4 -8 0  4.4 -8 0  4.800000000000001 -8 0  5.199999999999999 -8 0  5.6 -8 0  6 -8 0  6.399999999999999 -8 0  6.800000000000001 -8 0  7.199999999999999 -8 0  7.600000000000001 -8 0  8 -8 0  8.399999999999999 -8 0  8.800000000000001 -8 0  9.199999999999999 -8 0  9.600000000000001 -8 0  10 -8 0  -10 -7.6 0  -9.6 -7.6 0  -9.199999999999999 -7.6 0  -8.800000000000001 -7.6 0  -8.4 -7.6 0  -8 -7.6 0  -7.6 -7.6 0  -7.2 -7.6 0  -6.8 -7.6 0  -6.4 -7.6 0  -6 -7.6 0  -5.6 -7.6 0  -5.2 -7.6 0  -4.8 -7.6 0  -4.4 -7.6 0  -4 -7.6 0  -3.6 -7.6 0  -3.2 -7.6 0  -2.8 -7.6 0  -2.4 -7.6 0  -2 -7.6 0  -1.6 -7.6 0  -1.199999999999999 -7.6 0  -0.8000000000000007 -7.6 0  -0.4000000000000004 -7.6 0  0 -7.6 0  0.4000000000000004 -7.6 0  0.8000000000000007 -7.6 0  1.199999999999999 -7.6 0  1.6 -7.6 0  2 -7.6 0  2.4 -7.6 0  2.800000000000001 -7.6 0  3.199999999999999 -7.6 0  3.6 -7.6 0  4 -7.6 0  4.4 -7.6 0  4.800000000000001 -7.6 0  5.199999999999999 -7.6 0  5.6 -7.6 0  6 -7.6 0  6.399999999999999 -7.6 0  6.800000000000001 -7.6 0  7.199999999999999 -7.6 0  7.600000000000001 -7.6 0  8 -7.6 0  8.399999999999999 -7.6 0  8.800000000000001 -7.6 0  9.199999999999999 -7.6 0  9.600000000000001 -7.6 0  10 -7.6 0  -10 -7.2 0  -9.6 -7.2 0  -9.199999999999999 -7.2 0  -8.800000000000001 -7.2 0  -8.4 -7.2 0  -8 -7.2 0  -7.6 -7.2 0  -7.2 -7.2 0  -6.8 -7.2 0  -6.4 -7.2 0  -6 -7.2 0  -5.6 -7.2 0  -5.2 -7.2 0  -4.8 -7.2 0  -4.4 -7.2 0  -4 -7.2 0  -3.6 -7.2 0  -3.2 -7.2 0  -2.8 -7.2 0  -2.4 -7.2 0  -2 -7.2 0  -1.6 -7.2 0  -1.199999999999999 -7.2 0  -0.8000000000000007 -7.2 0  -0.4000000000000004 -7.2 0  0 -7.2 0  0.4000000000000004 -7.2 0  0.8000000000000007 -7.2 0  1.199999999999999 -7.2 0  1.6 -7.2 0  2 -7.2 0  2.4 -7.2 0  2.800000000000001 -7.2 0  3.199999999999999 -7.2 0  3.6 -7.2 0  4 -7.2 0  4.4 -7.2 0  4.800000000000001 -7.2 0  5.199999999999999 -7.2 0  5.6 -7.2 0  6 -7.2 0  6.399999999999999 -7.2 0  6.800000000000001 -7.2 0  7.199999999999999 -7.2 0  7.600000000000001 -7.2 0  8 -7.2 0  8.399999999999999 -7.2 0  8.800000000000001 -7.2 0  9.199999999999999 -7.2 0  9.600000000000001 -7.2 0  10 -7.2 0  -10 -6.8 0  -9.6 -6.8 0  -9.199999999999999 -6.8 0  -8.800000000000001 -6.8 0  -8.4 -6.8 0  -8 -6.8 0  -7.6 -6.8 0  -7.2 -6.8 0  -6.8 -6.8 0  -6.4 -6.8 0  -6 -6.8 0  -5.6 -6.8 0  -5.2 -6.8 0  -4.8 -6.8 0  -4.4 -6.8 0  -4 -6.8 0  -3.6 -6.8 0  -3.2 -6.8 0  -2.8 -6.8 0  -2.4 -6.8 0  -2 -6.8 0  -1.6 -6.8 0  -1.199999999999999 -6.8 0  -0.8000000000000007 -6.8 0  -0.4000000000000004 -6.8 0  0 -6.8 0  0.4000000000000004 -6.8 0  0.8000000000000007 -6.8 0  1.199999999999999 -6.8 0  1.6 -6.8 0  2 -6.8 0  2.4 -6.8 0  2.800000000000001 -6.8 0  3.199999999999999 -6.8 0  3.6 -6.8 0  4 -6.8 0  4.4 -6.8 0  4.800000000000001 -6.8 0  5.199999999999999 -6.8 0  5.6 -6.8 0  6 -6.8 0  6.399999999999999 -6.8 0  6.800000000000001 -6.8 0  7.199999999999999 -6.8 0  7.600000000000001 -6.8 0  8 -6.8 0  8.399999999999999 -6.8 0  8.800000000000001 -6.8 0  9.199999999999999 -6.8 0  9.600000000000001 -6.8 0  10 -6.8 0  -10 -6.4 0  -9.6 -6.4 0  -9.199999999999999 -6.4 0  -8.800000000000001 -6.4 0  -8.4 -6.4 0  -8 -6.4 0  -7.6 -6.4 0  -7.2 -6.4 0  -6.8 -6.4 0  -6.4 -6.4 0  -6 -6.4 0  -5.6 -6.4 0  -5.2 -6.4 0  -4.8 -6.4 0  -4.4 -6.4 0  -4 -6.4 0  -3.6 -6.4 0  -3.2 -6.4 0  -2.8 -6.4 0  -2.4 -6.4 0  -2 -6.4 0  -1.6 -6.4 0  -1.199999999999999 -6.4 0  -0.8000000000000007 -6.4 0  -0.4000000000000004 -6.4 0  0 -6.4 0
[...]
<PointData  Scalars="f_148"> 
<DataArray  type="Float64"  Name="f_148"  format="ascii">-7.7239905303743615e-05  5.3472702859882495e-04  -9.4561225358359225e-04  1.3180742169323937e-03  -1.6406483652921773e-03  1.9025748604488131e-03  -2.0960252656710512e-03  2.2166138068935894e-03  -2.2635690179235676e-03  2.2396814670210155e-03  -2.1510448583598324e-03  2.0066095042152623e-03  -1.8175771369608152e-03  1.5966752848297879e-03  -1.3573565032274613e-03  1.1129720673676111e-03  -8.7597100038416494e-04  6.5717345118222541e-04  -4.6516256414479563e-04  3.0583140183082811e-04  -1.8211166286601148e-04  9.3899489126916653e-05  -3.8181288065116614e-05  9.3499729910686218e-06  3.0987909042584211e-07  8.4985798402250638e-15  -3.0987910696323190e-07  -9.3499729753589643e-06  3.8181288050798328e-05  -9.3899489114347985e-05  1.8211166285567881e-04  -3.0583140182292878e-04  4.6516256413976401e-04  -6.5717345118026897e-04  8.7597100038538207e-04  -1.1129720673720756e-03  1.3573565032349564e-03  -1.5966752848400726e-03  1.8175771369732671e-03  -2.0066095042295547e-03  2.1510448583755338e-03  -2.2396814670374685e-03  2.2635690179400843e-03  -2.2166138069095427e-03  2.0960252656857495e-03  -1.9025748604621800e-03  1.6406483653037976e-03  -1.3180742169418640e-03  9.4561225359044039e-04  -5.3472702860255764e-04  7.7239905304535828e-05  5.3472702845084794e-04  -2.6557286323567833e-03  4.6744015516111759e-03  -6.5137407544759154e-03  8.1071330099950056e-03  -9.4004949651258357e-03  1.0355032085380311e-02  -1.0949067657018474e-02  1.1178829936982344e-02  -1.1058186167371602e-02  1.0617358536221819e-02  -9.9007114644977540e-03  8.9637531914669687e-03  -7.8695409261122506e-03  6.6847139101265576e-03  -5.4754001214250680e-03  4.3032486325527732e-03  -3.2218304242808502e-03  2.2736263176769871e-03  -1.4877831318174726e-03  8.7877053189329044e-04  -4.4601431970394876e-04  1.7452064766785471e-04  -3.6443600148425242e-05  -6.5103809512544085e-06  -4.1435805196845474e-14  6.5103810328005454e-06  3.6443600070814737e-05  -1.7452064759674321e-04  4.4601431964167175e-04  -8.7877053184193656e-04  1.4877831317785287e-03  -2.2736263176522499e-03  3.2218304242712394e-03  -4.3032486325589236e-03  5.4754001214470261e-03  -6.6847139101634256e-03  7.8695409261628178e-03  -8.9637531915292435e-03  9.9007114645690633e-03  -1.0617358536299519e-02  1.1058186167452451e-02  -1.1178829937063232e-02  1.0949067657096677e-02  -1.0355032085453797e-02  9.4004949651925636e-03  -8.1071330100524874e-03  6.5137407545222889e-03  -4.6744015516441955e-03  2.6557286323756154e-03  -5.3472702845457044e-04  -9.4561225182967070e-04  4.6744015442304219e-03  -8.2223029881247703e-03  1.1453388384117708e-02  -1.4248891135868190e-02  1.6512813239143439e-02  -1.8176554667535989e-02  1.9202031081808221e-02  -1.9583027107921328e-02  1.9344702055182784e-02  -1.8541290307845175e-02  1.7252149972172261e-02  -1.5576413033191011e-02  1.3626573964611114e-02  -1.1521416597093728e-02  9.3787172583574482e-03  -7.3081734184053584e-03  5.4049906382724290e-03  -3.7445175751063759e-03  2.3782518264791257e-03  -1.3314526635078380e-03  6.0249558311225768e-04  -1.6399436636492209e-04  -3.4394278013536078e-05  6.1673537964515265e-05  7.2607062386845843e-14  -6.1673538107482839e-05  3.4394278149606358e-05  1.6399436623992428e-04  -6.0249558300241336e-04  1.3314526634166724e-03  -2.3782518264102073e-03  3.7445175750625676e-03  -5.4049906382555345e-03  7.3081734184163218e-03  -9.3787172583963564e-03  1.1521416597158876e-02  -1.3626573964700180e-02  1.5576413033300564e-02  -1.7252149972297789e-02  1.8541290307981712e-02  -1.9344702055325194e-02  1.9583027108064144e-02  -1.9202031081946461e-02  1.8176554667666087e-02  -1.6512813239261341e-02  1.4248891135969794e-02  -1.1453388384199070e-02  8.2223029881830761e-03  -4.6744015442631492e-03  9.4561225183652166e-04  1.3180742110657170e-03  -6.5137407272748788e-03  1.1453388354358182e-02  -1.5945990670117132e-02  1.9824173187519362e-02  -2.2952791722064818e-02  2.5235609543078880e-02  -2.6619716286330735e-02  2.7097426201592435e-02  -2.6705551431768348e-02  2.5522110467128576e-02  -2.3660689399789311e-02  2.1262815981241228e-02  -1.8488825964038769e-02  1.5507790835836517e-02  -1.2487130477868312e-02  9.5825502356344117e-03  -6.9289184564538609e-03  4.6326392251565306e-03  -2.7659796454768855e-03  1.3636874968723334e-03  -4.2209110147965441e-04  -9.9282320998359989e-05  2.7369102781251976e-04  -2.0103676923927073e-04  -1.0097338080948952e-13  2.0103676943807522e-04  -2.7369102800183913e-04  9.9282321172752621e-05  4.2209110132581783e-04  -1.3636874967447657e-03  2.7659796453800979e-03  -4.6326392250950702e-03  6.9289184564299555e-03  -9.5825502356494102e-03  1.2487130477921963e-02  -1.5507790835926922e-02  1.8488825964162441e-02  -2.1262815981393377e-02  2.3660689399963717e-02  -2.5522110467318563e-02  2.6705551431966880e-02  -2.7097426201792171e-02  2.6619716286525173e-02  -2.5235609543262042e-02  2.2952791722230883e-02  -1.9824173187662109e-02  1.5945990670231301e-02  -1.1453388354439754e-02  6.5137407273212506e-03  -1.3180742110749635e-03  -1.6406483519510245e-03  8.1071329462932135e-03  -1.4248891046323920e-02  1.9824173114361895e-02  -2.4621316719923465e-02  2.8469768910363562e-02  -3.1248653591646081e-02  3.2892413537685787e-02  -3.3393211626897464e-02  3.2799967541784193e-02  -3.1214110315760994e-02  2.8782326728692888e-02  -2.5686767459104705e-02  2.2133325912991702e-02  -1.8338719486619057e-02  1.4517172731245479e-02  -1.0867522270195317e-02  7.5615331946969318e-03  -4.7341379595112424e-03  2.4761864261756226e-03  -8.3013726099969603e-04  -2.1106379447694324e-04  7.0187276936584076e-04  -7.3895939840287468e-04  4.5329009338797836e-04  1.2604954546388571e-13  -4.5329009363605883e-04  7.3895939863929494e-04  -7.0187276958356894e-04  2.1106379466888137e-04  8.3013726083987476e-04  -2.4761864260546135e-03  4.7341379594339683e-03  -7.5615331946665212e-03  1.0867522270213334e-02  -1.4517172731311414e-02  1.8338719486730375e-02  -2.2133325913144177e-02  2.5686767459292291e-02  -2.8782326728908458e-02  3.1214110315996756e-02  -3.2799967542031599e-02  3.3393211627147805e-02  -3.2892413537930182e-02  3.1248653591877337e-02  -2.8469768910573297e-02  2.4621316720103786e-02  -1.9824173114506315e-02  1.4248891046427511e-02  -8.1071329463520241e-03  1.6406483519629982e-03  1.9025748356822187e-03  -9.4004948453137241e-03  1.6512813054486201e-02  -2.2952791524617072e-02  2.8469768770199508e-02  -3.2862358945133001e-02  3.5988719609819857e-02  -3.7773297450635915e-02  3.8209671224084675e-02  -3.7359345727090577e-02  3.5346595754758313e-02  -3.2349698556567420e-02  2.8589111902792525e-02  -2.4313338907080932e-02  1.9783358901667752e-02  -1.5256587487986200e-02  1.0971353302438449e-02  -7.1328426185103934e-03  3.9013679706833750e-03  -1.3836694529675026e-03  -3.7223362752435027e-04  1.3783456444058375e-03  -1.7040974169675570e-03  1.4700375640432908e-03  -8.3823248891773470e-04  -1.4662394762349424e-13  8.3823248920642337e-04  -1.4700375643186417e-03  1.7040974172208556e-03  -1.3783456446290765e-03  3.7223362770988166e-04  1.3836694528268410e-03  -3.9013679705934010e-03  7.1328426184744881e-03  -1.0971353302458192e-02  1.5256587488060953e-02  -1.9783358901794511e-02  2.4313338907255008e-02  -2.8589111903007513e-02  3.2349698556815486e-02  -3.5346595755031004e-02  3.7359345727378347e-02  -3.8209671224376997e-02  3.7773297450922921e-02  -3.5988719610092118e-02  3.2862358945380352e-02  -2.8469768770412771e-02  2.2952791524788057e-02  -1.6512813054608645e-02  9.4004948453837167e-03  -1.9025748356963300e-03  -2.0960252252556848e-03  1.0355031888491623e-02  -1.8176554349941674e-02  2.5235609166483913e-02  -3.1248653239239563e-02  3.5988719380222696e-02  -3.9297183833231032e-02  4.1091476588392677e-02  -4.1368293147783008e-02  4.0202139744887268e-02  -3.7739327540392026e-02  3.4187807677045996e-02  -2.9803491143400342e-02  2.4873909587318839e-02  -1.9700232478225669e-02  1.4578752584178751e-02  -9.7829797260818568e-03  5.5474405462527937e-03  -2.0541722582382610e-03  -5.7727213515521285e-04  2.2957102852578259e-03  -3.1197688275396416e-03  3.1348114975414975e-03  -2.4855760222405278e-03  1.3650059160508431e-03  1.6167465861139216e-13  -1.3650059163694643e-03  2.4855760225446174e-03  -3.1348114978213487e-03  3.1197688277858531e-03  -2.2957102854623355e-03  5.7727213531063042e-04  2.0541722581381909e-03  -5.5474405462117224e-03  9.7829797261015875e-03  -1.4578752584258224e-02  1.9700232478361817e-02  -2.4873909587507129e-02  2.9803491143634481e-02  -3.4187807677318056e-02  3.7739327540692660e-02  -4.0202139745206082e-02  4.1368293148108339e-02  -4.1091476588713281e-02  3.9297183833535664e-02  -3.5988719380499808e-02  3.1248653239478948e-02  -2.5235609166676134e-02  1.8176554350079852e-02  -1.0355031888570319e-02  2.0960252252717076e-03  2.2166137466825774e-03  -1.0949067362459215e-02  1.9202030594048257e-02  -2.6619715676421966e-02  3.2892412901573909e-02  -3.7773296902346293e-02  4.1091476251849869e-02  -4.2760515538711442e-02  4.2781936444347524e-02  -4.1243510798291035e-02  3.8312475952218768e-02  -3.4224111820856697e-02  2.9266400629136758e-02  -2.3761727458008173e-02  1.8046757532023342e-02  -1.2451733937994609e-02  7.2804705324385549e-03  -2.7922673418129583e-03  -8.1314722186461670e-04  3.4067338698765760e-03  -4.9366531273002641e-03  5.4297903584114623e-03  -4.9882269714836870e-03  3.7809041388098706e-03  -2.0310242363579078e-03  -1.7050131260704202e-13  2.0310242366939971e-03  -3.7809041391311405e-03  4.9882269717793628e-03  -5.4297903586715806e-03  4.9366531275163109e-03  -3.4067338700412546e-03  8.1314722197169521e-04  2.7922673417674630e-03  -7.2804705324562343e-03  1.2451733938074938e-02  -1.8046757532163456e-02  2.3761727458203982e-02  -2.9266400629382325e-02  3.4224111821143939e-02  -3.8312475952538214e-02  4.1243510798631373e-02  -4.2781936444696037e-02  4.2760515539056090e-02  -4.1091476252177704e-02  3.7773296902645040e-02  -3.2892412901832091e-02  2.6619715676629536e-02  -1.9202030594197030e-02  1.0949067362543898e-02  -2.2166137466997152e-03  -2.2635689342044327e-03  1.1178829526305171e-02  -1.9583026416532371e-02  2.7097425309425979e-02  -3.3393210642074733e-02  3.8209670275430291e-02  -4.1368292375835961e-02  4.2781935991433526e-02  -4.2458538662911695e-02  4.0499158515668834e-02  -3.7090494304862484e-02  3.2492363686026926e-02  -2.7020926913136442e-02  2.1028701377279708e-02  -1.4882606039004532e-02  8.9413920026401410e-03  -3.5338490717227657e-03  -1.0608738952563299e-03  4.6296313714197998e-03  -7.0373311958633498e-03  8.2339466271814255e-03  -8.2560786973474888e-03  7.2229961077223664e-03  -5.3274229887945047e-03  2.8216708646563045e-03  1.7228727628306427e-13  -2.8216708649960332e-03  5.3274229891194817e-03  -7.2229961080220598e-03  8.2560786976116525e-03  -8.2339466274010502e-03  7.0373311960311912e-03  -4.6296313715299773e-03  1.0608738953050961e-03  3.5338490717375100e-03  -8.9413920027179104e-03  1.4882606039143658e-02  -2.1028701377476536e-02  2.7020926913385798e-02  -3.2492363686320733e-02  3.7090494305191207e-02  -4.0499158516020491e-02  4.2458538663273454e-02  -4.2781935991791940e-02  4.1368292376177535e-02  -3.8209670275742076e-02  3.3393210642344545e-02  -2.7097425309643024e-02  1.9583026416687920e-02  -1.1178829526393342e-02  2.2635689342224022e-03  2.2396813568593692e-03  -1.1058185625977504e-02  1.9344701133510719e-02  -2.6705550217976208e-02  3.2799966155318827e-02  -3.7359344310638462e-02  4.0202138454698035e-02  -4.1243509793485574e-02  4.0499157947206064e-02  -3.8083119489294381e-02  3.4199688814650527e-02  -2.9129975395217615e-02  2.3213938841386672e-02  -1.6829018512252263e-02  1.0366680797738764e-02  -4.2083319682754078e-03  -1.2979199813205058e-03  5.8582269132207562e-03  -9.2504017016724893e-03  1.1336697814398980e-02  -1.2071194080832251e-02  1.1501346733628617e-02  -9.7636328502265536e-03  7.0735757305691567e-03  -3.7107909157859560e-03  -1.6684151482531415e-13  3.7107909161150205e-03  -7.0735757308842033e-03  9.7636328505178397e-03  -1.1501346733885984e-02  1.2071194081046906e-02  -1.1336697814563703e-02  9.2504017017819625e-03  -5.8582269132711204e-03  1.2979199813096104e-03  4.2083319683483772e-03  -1.0366680797872473e-02  1.6829018512444484e-02  -2.3213938841632489e-02  2.9129975395509440e-02  -3.4199688814978708e-02  3.8083119489647370e-02  -4.0499157947570377e-02  4.1243509793847437e-02  -4.0202138455043834e-02  3.7359344310954751e-02  -3.2799966155593017e-02  2.6705550218196743e-02  -1.9344701133668540e-02  1.1058185626067203e-02  -2.2396813568775378e-03  -2.1510447199050769e-03  1.0617357854877302e-02  -1.8541289138757515e-02  2.5522108905802064e-02  -3.1214108491812394e-02  3.5346593823414853e-02  -3.7739325672265386e-02  3.8312474321996401e-02  -3.7090493079624615e-02  3.4199688142546876e-02  -2.9859648830801264e-02  2.4369078342085824e-02  -1.8086907858505672e-02  1.1409864963379047e-02  -4.7478832050885187e-03  -1.5011299859117235e-03  6.9756129523554479e-03  -1.1372261826064848e-02  1.4464190620553718e-02  -1.6114228771063385e-02  1.6282547441548105e-02  -1.5028157522700189e-02  1.2504201810690806e-02  -8.9473479684955802e-03  4.6619538395954035e-03  1.5479907243442681e-13  -4.6619538399006767e-03  8.9473479687881639e-03  -1.2504201810961747e-02  1.5028157522940584e-02  -1.6282547441749458e-02  1.6114228771218927e-02  -1.4464190620658098e-02  1.1372261826114657e-02  -6.9756129523476148e-03  1.5011299858455937e-03  4.7478832052131829e-03  -1.1409864963560907e-02  1.8086907858740606e-02  -2.4369078342366627e-02  2.9859648831118923e-02  -3.4199688142889845e-02  3.7090493079979997e-02  -3.8312474322350486e-02  3.7739325672604934e-02  -3.5346593823726472e-02  3.1214108492082636e-02  -2.5522108906019608e-02  1.8541289138913460e-02  -1.0617357854965823e-02  2.1510447199230244e-03  2.0066093369482431e-03  -9.9007106405609776e-03  1.7252148550256433e-02  -2.3660687481631922e-02  2.8782324452593554e-02  -3.2349696088557020e-02  3.4187805200258804e-02  -3.4224109523767338e-02  3.2492361750284686e-02  -2.9129973983835551e-02  2.4369077588721592e-02  -1.8521836533992690e-02  1.1960924983409177e-02  -5.0963763181270773e-03  -1.6497672206701565e-03  7.8694411718744136e-03  -1.3193581084401766e-02  1.7314640654450392e-02  -2.0005221920767299e-02  2.1131674700693590e-02  -2.0661833808687975e-02  1.8666425081558902e-02  -1.5314062489497704e-02  1.0860154517298199e-02  -5.6304141495113567e-03  -1.3693013801946638e-13  5.6304141497814627e-03  -1.0860154517557140e-02  1.5314062489738078e-02  -1.8666425081773082e-02  2.0661833808868778e-02  -2.1131674700834123e-02  2.0005221920862890e-02  -1.7314640654496883e-02  1.3193581084396673e-02  -7.8694411718160644e-03  1.6497672205581053e-03  5.0963763182928319e-03  -1.1960924983625236e-02  1.8521836534253166e-02  -2.4369077589017782e-02  2.9129973984157415e-02  -3.2492361750619980e-02  3.4224109524103034e-02  -3.4187805200581713e-02  3.2349696088854026e-02  -2.8782324452851664e-02  2.3660687481840026e-02  -1.7252148550405948e-02  9.9007106406459010e-03  -2.0066093369655175e-03  -1.8175769418657933e-03  8.9637522297412627e-03  -1.5576411366284387e-02  2.1262813715770816e-02  -2.5686764740226554e-02  2.8589108905173612e-02  -2.9803488060347140e-02  2.9266397660552026e-02  -2.7020924253051314e-02  2.3213936665833858e-02  -1.8086906314487269e-02  1.1960924179639804e-02  -5.2168391407484711e-03  -1.7282575078487240e-03  8.4467518681734209e-03  -1.4526846730423149e-02  1.9597897781837025e-02  -2.3353186408203132e-02  2.5568727117575955e-02  -2.6116952322606222e-02  2.4974433196136667e-02  -2.2223163092565543e-02  1.8045326942472031e-02  -1.2711881623177906e-02  6.5656538385945457e-03  1.1422094647655495e-13  -6.5656538388198203e-03  1.2711881623394393e-02  -1.8045326942673617e-02  2.2223163092746596e-02  -2.4974433196290623e-02  2.6116952322727705e-02  -2.5568727117659618e-02  2.3353186408244894e-02  -1.9597897781834094e-02  1.4526846730374085e-02  -8.4467518680767552e-03  1.7282575077044626e-03  5.2168391409387702e-03  -1.1960924179871208e-02  1.8086906314752564e-02  -2.3213936666123900e-02  2.7020924253355845e-02  -2.9266397660858947e-02  2.9803488060643857e-02  -2.8589108905447601e-02  2.5686764740465384e-02  -2.1262813715964005e-02  1.5576411366423591e-02  -8.9637522298204823e-03  1.8175769418818379e-03  1.5966750644775317e-03  -7.8695398392594259e-03  1.3626572074551251e-02  -1.8488823380681304e-02  2.2133322786191865e-02  -2.4313335417552599e-02  2.4873905935685742e-02  -2.3761723852665634e-02  2.1028698021813067e-02  -1.6829015593180851e-02  1.1409862638977905e-02  -5.0963747090092106e-03  -1.7282583258137524e-03  8.6463095899573291e-03  -1.5231207279346428e-02  2.1073819393881633e-02  -2.5807711775276215e-02  2.9131822611756047e-02  -3.0829155004682481e-02  3.0780333797492520e-02  -2.8971188586590559e-02  2.5493892227549844e-02  -2.0541580594749132e-02  1.4396780434368043e-02  -7.4143531688635163e-03  -8.7798605307253908e-14  7.4143531690370476e-03  -1.4396780434535289e-02  2.0541580594906010e-02  -2.5493892227691783e-02  2.8971188586713239e-02  -3.0780333797590816e-02  3.0829155004751706e-02  -2.9131822611792240e-02  2.5807711775276247e-02  -2.1073819393843216e-02  1.5231207279268057e-02  -8.6463095898381796e-03  1.7282583256549131e-03  5.0963747092044260e-03  -1.1409862639203681e-02  1.6829015593430065e-02  -2.1028698022077120e-02  2.3761723852934083e-02  -2.4873905935947384e-02  2.4313335417795675e-02  -2.2133322786404844e-02  1.8488823380854242e-02  -1.3626572074676366e-02  7.8695398393304281e-03  -1.5966750644920294e-03  -1.3573562617631956e-03  6.6847127186078501e-03  -1.1521414519623151e-02  1.5507787983815717e-02  -1.8338716012142944e-02  1.9783354988519387e-02  -1.9700228331022831e-02  1.8046753364176906e-02  -1.4882602060220185e-02  1.0366677201827084e-02  -4.7478801588173164e-03  -1.6497695870029299e-03  8.4467534678806921e-03  -1.5231208073778981e-02  2.1584191698048691e-02  -2.7105508291706524e-02  3.1438497718412325e-02  -3.4292263010818218e-02  3.5459961381749491e-02  -3.4832026455523593e-02  3.2403499754171755e-02  -2.8275010794099432e-02  2.2647334986168589e-02  -1.5809852892836720e-02  8.1236090052071198e-03  5.8761748832012336e-14  -8.1236090053233116e-03  1.5809852892949366e-02  -2.2647334986275643e-02  2.8275010794198221e-02  -3.2403499754258921e-02  3.4832026455595778e-02  -3.5459961381802525e-02  3.4292263010847902e-02  -3.1438497718415628e-02  2.7105508291680333e-02  -2.1584191697990803e-02  1.5231208073688763e-02  -8.4467534677584322e-03  1.6497695868502161e-03  4.7478801589966911e-03  -1.0366677202027457e-02  1.4882602060435440e-02  -1.8046753364398666e-02  1.9700228331241538e-02  -1.9783354988724584e-02  1.8338716012323997e-02  -1.5507787983963545e-02  1.1521414519730270e-02  -6.6847127186689271e-03  1.3573562617755319e-03  1.1129718104011970e-03  -5.4753988529590014e-03  9.3787150421687244e-03  -1.2487127424872574e-02  1.4517168993061023e-02  -1.5256583248157055e-02  1.4578748047591022e-02  -1.2451729319124100e-02  8.9413875133450161e-03  -4.2083278058678173e-03  -1.5011336495954774e-03  7.8694441997525597e-03  -1.4526849027244933e-02  2.1073820910683369e-02  -2.7105509027397338e-02  3.2236703176087053e-02  -3.6125775146552047e-02  3.8496119083870094e-02  -3.9153763925795011e-02  3.8000064062040526e-02  -3.5038674956852617e-02  3.0376370114337452e-02  -2.4217632947765605e-02  1.6853338637759320e-02  -8.6442034567964891e-03  -2.7433521703153459e-14  8.6442034568513636e-03  -1.6853338637813561e-02  2.4217632947819305e-02  -3.0376370114389768e-02  3.5038674956901973e-02  -3.8000064062084643e-02  3.9153763925830809e-02  -3.8496119083893367e-02  3.6125775146559194e-02  -3.2236703176074570e-02  2.7105509027362897e-02  -2.1073820910625641e-02  1.4526849027163065e-02  -7.8694441996467832e-03  1.5011336494681106e-03  4.2083278060136156e-03  -8.9413875135048292e-03  1.2451729319292455e-02  -1.4578748047760185e-02  1.5256583248318450e-02  -1.4517168993205064e-02  1.2487127424991116e