<?xml version="1.0"?>
<VTKFile type="UnstructuredGrid"  version="0.1"  >
<UnstructuredGrid>
<Piece  NumberOfPoints="2601" NumberOfCells="5000">
<Points>
<DataArray  type="Float64"  NumberOfComponents="3"  format="ascii">-10 -10 0  -9.6 -10 0  -9.199999999999999 -10 0  -8.800000000000001 -10 0  -8.4 -10 0  -8 -10 0  -7.6 -10 0  -7.2 -10 0  -6.8 -10 0  -6.4 -10 0  -6 -10 0  -5.6 -10 0  -5.2 -10 0  -4.8 -10 0  -4.4 -10 0  -4 -10 0  -3.6 -10 0  -3.2 -10 0  -2.8 -10 0  -2.4 -10 0  -2 -10 0  -1.6 -10 0  -1.199999999999999 -10 0  -0.8000000000000007 -10 0  -0.4000000000000004 -10 0  0 -10 0  0.4000000000000004 -10 0  0.8000000000000007 -10 0  1.199999999999999 -10 0  1.6 -10 0  2 -10 0  2.4 -10 0  2.800000000000001 -10 0  3.199999999999999 -10 0  3.6 -10 0  4 -10 0  4.4 -10 0  4.800000000000001 -10 0  5.199999999999999 -10 0  5.6 -10 0  6 -10 0  6.399999999999999 -10 0  6.800000000000001 -10 0  7.199999999999999 -10 0  7.600000000000001 -10 0  8 -10 0  8.399999999999999 -10 0  8.800000000000001 -10 0  9.199999999999999 -10 0  9.600000000000001 -10 0  10 -10 0  -10 -9.6 0  -9.6 -9.6 0  -9.199999999999999 -9.6 0  -8.800000000000001 -9.6 0  -8.4 -9.6 0  -8 -9.6 0  -7.6 -9.6 0  -7.2 -9.6 0  -6.8 -9.6 0  -6.4 -9.6 0  -6 -9.6 0  -5.6 -9.6 0  -5.2 -9.6 0  -4.8 -9.6 0  -4.4 -9.6 0  -4 -9.6 0  -3.6 -9.6 0  -3.2 -9.6 0  -2.8 -9.6 0  -2.4 -9.6 0  -2 -9.6 0  -1.6 -9.6 0  -1.199999999999999 -9.6 0  -0.8000000000000007 -9.6 0  -0.4000000000000004 -9.6 0  0 -9.6 0  0.4000000000000004 -9.6 0  0.8000000000000007 -9.6 0  1.199999999999999 -9.6 0  1.6 -9.6 0  2 -9.6 0  2.4 -9.6 0  2.800000000000001 -9.6 0  3.199999999999999 -9.6 0  3.6 -9.6 0  4 -9.6 0  4.4 -9.6 0  4.800000000000001 -9.6 0  5.199999999999999 -9.6 0  5.6 -9.6 0  6 -9.6 0  6.399999999999999 -9.6 0  6.800000000000001 -9.6 0  7.199999999999999 -9.6 0  7.600000000000001 -9.6 0  8 -9.6 0  8.399999999999999 -9.6 0  8.800000000000001 -9.6 0  9.199999999999999 -9.6 0  9.600000000000001 -9.6 0  10 -9.6 0  -10 -9.199999999999999 0  -9.6 -9.199999999999999 0  -9.199999999999999 -9.199999999999999 0  -8.800000000000001 -9.199999999999999 0  -8.4 -9.199999999999999 0  -8 -9.199999999999999 0  -7.6 -9.199999999999999 0  -7.2 -9.199999999999999 0  -6.8 -9.199999999999999 0  -6.4 -9.199999999999999 0  -6 -9.199999999999999 0  -5.6 -9.199999999999999 0  -5.2 -9.199999999999999 0  -4.8 -9.199999999999999 0  -4.4 -9.199999999999999 0  -4 -9.199999999999999 0  -3.6 -9.199999999999999 0  -3.2 -9.199999999999999 0  -2.8 -9.199999999999999 0  -2.4 -9.199999999999999 0  -2 -9.199999999999999 0  -1.6 -9.199999999999999 0  -1.199999999999999 -9.199999999999999 0  -0.8000000000000007 -9.199999999999999 0  -0.4000000000000004 -9.199999999999999 0  0 -9.199999999999999 0  0.4000000000000004 -9.199999999999999 0  0.8000000000000007 -9.199999999999999 0  1.199999999999999 -9.199999999999999 0  1.6 -9.199999999999999 0  2 -9.199999999999999 0  2.4 -9.199999999999999 0  2.800000000000001 -9.199999999999999 0  3.199999999999999 -9.199999999999999 0  3.6 -9.199999999999999 0  4 -9.199999999999999 0  4.4 -9.199999999999999 0  4.800000000000001 -9.199999999999999 0  5.199999999999999 -9.199999999999999 0  5.6 -9.199999999999999 0  6 -9.199999999999999 0  6.399999999999999 -9.199999999999999 0  6.800000000000001 -9.199999999999999 0  7.199999999999999 -9.199999999999999 0  7.600000000000001 -9.199999999999999 0  8 -9.199999999999999 0  8.399999999999999 -9.199999999999999 0  8.800000000000001 -9.199999999999999 0  9.199999999999999 -9.199999999999999 0  9.600000000000001 -9.199999999999999 0  10 -9.199999999999999 0  -10 -8.800000000000001 0  -9.6 -8.800000000000001 0  -9.199999999999999 -8.800000000000001 0  -8.800000000000001 -8.800000000000001 0  -8.4 -8.800000000000001 0  -8 -8.800000000000001 0  -7.6 -8.800000000000001 0  -7.2 -8.800000000000001 0  -6.8 -8.800000000000001 0  -6.4 -8.800000000000001 0  -6 -8.800000000000001 0  -5.6 -8.800000000000001 0  -5.2 -8.800000000000001 0  -4.8 -8.800000000000001 0  -4.4 -8.800000000000001 0  -4 -8.800000000000001 0  -3.6 -8.800000000000001 0  -3.2 -8.800000000000001 0  -2.8 -8.800000000000001 0  -2.4 -8.800000000000001 0  -2 -8.800000000000001 0  -1.6 -8.800000000000001 0  -1.199999999999999 -8.800000000000001 0  -0.8000000000000007 -8.800000000000001 0  -0.4000000000000004 -8.800000000000001 0  0 -8.800000000000001 0  0.4000000000000004 -8.800000000000001 0  0.8000000000000007 -8.800000000000001 0  1.199999999999999 -8.800000000000001 0  1.6 -8.800000000000001 0  2 -8.800000000000001 0  2.4 -8.800000000000001 0  2.800000000000001 -8.800000000000001 0  3.199999999999999 -8.800000000000001 0  3.6 -8.800000000000001 0  4 -8.800000000000001 0  4.4 -8.800000000000001 0  4.800000000000001 -8.800000000000001 0  5.199999999999999 -8.800000000000001 0  5.6 -8.800000000000001 0  6 -8.800000000000001 0  6.399999999999999 -8.800000000000001 0  6.800000000000001 -8.800000000000001 0  7.199999999999999 -8.800000000000001 0  7.600000000000001 -8.800000000000001 0  8 -8.800000000000001 0  8.399999999999999 -8.800000000000001 0  8.800000000000001 -8.800000000000001 0  9.199999999999999 -8.800000000000001 0  9.600000000000001 -8.800000000000001 0  10 -8.800000000000001 0  -10 -8.4 0  -9.6 -8.4 0  -9.199999999999999 -8.4 0  -8.800000000000001 -8.4 0  -8.4 -8.4 0  -8 -8.4 0  -7.6 -8.4 0  -7.2 -8.4 0  -6.8 -8.4 0  -6.4 -8.4 0  -6 -8.4 0  -5.6 -8.4 0  -5.2 -8.4 0  -4.8 -8.4 0  -4.4 -8.4 0  -4 -8.4 0  -3.6 -8.4 0  -3.2 -8.4 0  -2.8 -8.4 0  -2.4 -8.4 0  -2 -8.4 0  -1.6 -8.4 0  -1.199999999999999 -8.4 0  -0.8000000000000007 -8.4 0  -0.4000000000000004 -8.4 0  0 -8.4 0  0.4000000000000004 -8.4 0  0.8000000000000007 -8.4 0  1.199999999999999 -8.4 0  1.6 -8.4 0  2 -8.4 0  2.4 -8.4 0  2.800000000000001 -8.4 0  3.199999999999999 -8.4 0  3.6 -8.4 0  4 -8.4 0  4.4 -8.4 0  4.800000000000001 -8.4 0  5.199999999999999 -8.4 0  5.6 -8.4 0  6 -8.4 0  6.399999999999999 -8.4 0  6.800000000000001 -8.4 0  7.199999999999999 -8.4 0  7.600000000000001 -8.4 0  8 -8.4 0  8.399999999999999 -8.4 0  8.800000000000001 -8.4 0  9.199999999999999 -8.4 0  9.600000000000001 -8.4 0  10 -8.4 0  -10 -8 0  -9.6 -8 0  -9.199999999999999 -8 0  -8.800000000000001 -8 0  -8.4 -8 0  -8 -8 0  -7.6 -8 0  -7.2 -8 0  -6.8 -8 0  -6.4 -8 0  -6 -8 0  -5.6 -8 0  -5.2 -8 0  -4.8 -8 0  -4.4 -8 0  -4 -8 0  -3.6 -8 0  -3.2 -8 0  -2.8 -8 0  -2.4 -8 0  -2 -8 0  -1.6 -8 0  -1.199999999999999 -8 0  -0.8000000000000007 -8 0  -0.4000000000000004 -8 0  0 -8 0  0.4000000000000004 -8 0  0.8000000000000007 -8 0  1.199999999999999 -8 0  1.6 -8 0  2 -8 0  2.4 -8 0  2.800000000000001 -8 0  3.199999999999999 -8 0  3.6 -8 0  4 -8 0  4.4 -8 0  4.800000000000001 -8 0  5.199999999999999 -8 0  5.6 -8 0  6 -8 0  6.399999999999999 -8 0  6.800000000000001 -8 0  7.199999999999999 -8 0  7.600000000000001 -8 0  8 -8 0  8.399999999999999 -8 0  8.800000000000001 -8 0  9.199999999999999 -8 0  9.600000000000001 -8 0  10 -8 0  -10 -7.6 0  -9.6 -7.6 0  -9.199999999999999 -7.6 0  -8.800000000000001 -7.6 0  -8.4 -7.6 0  -8 -7.6 0  -7.6 -7.6 0  -7.2 -7.6 0  -6.8 -7.6 0  -6.4 -7.6 0  -6 -7.6 0  -5.6 -7.6 0  -5.2 -7.6 0  -4.8 -7.6 0  -4.4 -7.6 0  -4 -7.6 0  -3.6 -7.6 0  -3.2 -7.6 0  -2.8 -7.6 0  -2.4 -7.6 0  -2 -7.6 0  -1.6 -7.6 0  -1.199999999999999 -7.6 0  -0.8000000000000007 -7.6 0  -0.4000000000000004 -7.6 0  0 -7.6 0  0.4000000000000004 -7.6 0  0.8000000000000007 -7.6 0  1.199999999999999 -7.6 0  1.6 -7.6 0  2 -7.6 0  2.4 -7.6 0  2.800000000000001 -7.6 0  3.199999999999999 -7.6 0  3.6 -7.6 0  4 -7.6 0  4.4 -7.6 0  4.800000000000001 -7.6 0  5.199999999999999 -7.6 0  5.6 -7.6 0  6 -7.6 0  6.399999999999999 -7.6 0  6.800000000000001 -7.6 0  7.199999999999999 -7.6 0  7.600000000000001 -7.6 0  8 -7.6 0  8.399999999999999 -7.6 0  8.800000000000001 -7.6 0  9.199999999999999 -7.6 0  9.600000000000001 -7.6 0  10 -7.6 0  -10 -7.2 0  -9.6 -7.2 0  -9.199999999999999 -7.2 0  -8.800000000000001 -7.2 0  -8.4 -7.2 0  -8 -7.2 0  -7.6 -7.2 0  -7.2 -7.2 0  -6.8 -7.2 0  -6.4 -7.2 0  -6 -7.2 0  -5.6 -7.2 0  -5.2 -7.2 0  -4.8 -7.2 0  -4.4 -7.2 0  -4 -7.2 0  -3.6 -7.2 0  -3.2 -7.2 0  -2.8 -7.2 0  -2.4 -7.2 0  -2 -7.2 0  -1.6 -7.2 0  -1.199999999999999 -7.2 0  -0.8000000000000007 -7.2 0  -0.4000000000000004 -7.2 0  0 -7.2 0  0.4000000000000004 -7.2 0  0.8000000000000007 -7.2 0  1.199999999999999 -7.2 0  1.6 -7.2 0  2 -7.2 0  2.4 -7.2 0  2.800000000000001 -7.2 0  3.199999999999999 -7.2 0  3.6 -7.2 0  4 -7.2 0  4.4 -7.2 0  4.800000000000001 -7.2 0  5.199999999999999 -7.2 0  5.6 -7.2 0  6 -7.2 0  6.399999999999999 -7.2 0  6.800000000000001 -7.2 0  7.199999999999999 -7.2 0  7.600000000000001 -7.2 0  8 -7.2 0  8.399999999999999 -7.2 0  8.800000000000001 -7.2 0  9.199999999999999 -7.2 0  9.600000000000001 -7.2 0  10 -7.2 0  -10 -6.8 0  -9.6 -6.8 0  -9.199999999999999 -6.8 0  -8.800000000000001 -6.8 0  -8.4 -6.8 0  -8 -6.8 0  -7.6 -6.8 0  -7.2 -6.8 0  -6.8 -6.8 0  -6.4 -6.8 0  -6 -6.8 0  -5.6 -6.8 0  -5.2 -6.8 0  -4.8 -6.8 0  -4.4 -6.8 0  -4 -6.8 0  -3.6 -6.8 0  -3.2 -6.8 0  -2.8 -6.8 0  -2.4 -6.8 0  -2 -6.8 0  -1.6 -6.8 0  -1.199999999999999 -6.8 0  -0.8000000000000007 -6.8 0  -0.4000000000000004 -6.8 0  0 -6.8 0  0.4000000000000004 -6.8 0  0.8000000000000007 -6.8 0  1.199999999999999 -6.8 0  1.6 -6.8 0  2 -6.8 0  2.4 -6.8 0  2.800000000000001 -6.8 0  3.199999999999999 -6.8 0  3.6 -6.8 0  4 -6.8 0  4.4 -6.8 0  4.800000000000001 -6.8 0  5.199999999999999 -6.8 0  5.6 -6.8 0  6 -6.8 0  6.399999999999999 -6.8 0  6.800000000000001 -6.8 0  7.199999999999999 -6.8 0  7.600000000000001 -6.8 0  8 -6.8 0  8.399999999999999 -6.8 0  8.800000000000001 -6.8 0  9.199999999999999 -6.8 0  9.600000000000001 -6.8 0  10 -6.8 0  -10 -6.4 0  -9.6 -6.4 0  -9.199999999999999 -6.4 0  -8.800000000000001 -6.4 0  -8.4 -6.4 0  -8 -6.4 0  -7.6 -6.4 0  -7.2 -6.4 0  -6.8 -6.4 0  -6.4 -6.4 0  -6 -6.4 0  -5.6 -6.4 0  -5.2 -6.4 0  -4.8 -6.4 0  -4.4 -6.4 0  -4 -6.4 0  -3.6 -6.4 0  -3.2 -6.4 0  -2.8 -6.4 0  -2.4 -6.4 0  -2 -6.4 0  -1.6 -6.4 0  -1.199999999999999 -6.4 0  -0.8000000000000007 -6.4 0  -0.4000000000000004 -6.4 0  0 -6.4 0
[...]
<PointData  Scalars="f_522"> 
<DataArray  type="Float64"  Name="f_522"  format="ascii">-1.5561942062111749e-04  1.0491660112658299e-03  -1.7558357861697333e-03  2.2472531920856931e-03  -2.4997883195656311e-03  2.5390765857783806e-03  -2.4360302497380905e-03  2.2887290103688557e-03  -2.1975298631213658e-03  2.2397216563720184e-03  -2.4499184848403160e-03  2.8109672019095387e-03  -3.2575872370443071e-03  3.6918678023185238e-03  -4.0068670958090715e-03  4.1125890162545860e-03  -3.9580330210831150e-03  3.5439628364800049e-03  -2.9232892372378855e-03  2.1889651886295874e-03  -1.4523195411474143e-03  8.1707342426432254e-04  -3.5532901525556101e-04  9.1339768437566644e-05  3.0188633821809410e-06  4.0062297696372522e-15  -3.0188633898177850e-06  -9.1339768430928888e-05  3.5532901525057119e-04  -8.1707342426108436e-04  1.4523195411463559e-03  -2.1889651886301820e-03  2.9232892372400162e-03  -3.5439628364829570e-03  3.9580330210863893e-03  -4.1125890162575568e-03  4.0068670958114646e-03  -3.6918678023199593e-03  3.2575872370447906e-03  -2.8109672019089394e-03  2.4499184848390970e-03  -2.2397216563702829e-03  2.1975298631195196e-03  -2.2887290103669510e-03  2.4360302497364868e-03  -2.5390765857771736e-03  2.4997883195649658e-03  -2.2472531920853683e-03  1.7558357861696052e-03  -1.0491660112657794e-03  1.5561942062105075e-04  1.0491660117149975e-03  -5.0684479710988986e-03  8.4335724445275331e-03  -1.0775625195478998e-02  1.1960296407402022e-02  -1.2111140156114574e-02  1.1573467905534535e-02  -1.0824805977476334e-02  1.0353706989527825e-02  -1.0536467970161527e-02  1.1541770724609478e-02  -1.3286457340888978e-02  1.5453227191350363e-02  -1.7566000378283389e-02  1.9104684347727580e-02  -1.9631504295415079e-02  1.8898237888050100e-02  -1.6908315226525476e-02  1.3918684792354712e-02  -1.0380950680226703e-02  6.8360117069434503e-03  -3.7877056724136488e-03  1.5860466635015302e-03  -3.4830606376190873e-04  -6.3003807407756166e-05  -1.9085249898270272e-14  6.3003807444152697e-05  3.4830606373061627e-04  -1.5860466634778311e-03  3.7877056723991053e-03  -6.8360117069384023e-03  1.0380950680230348e-02  -1.3918684792365030e-02  1.6908315226539995e-02  -1.8898237888065834e-02  1.9631504295429616e-02  -1.9104684347738893e-02  1.7566000378290217e-02  -1.5453227191352163e-02  1.3286457340886267e-02  -1.1541770724603261e-02  1.0536467970153189e-02  -1.0353706989518612e-02  1.0824805977467503e-02  -1.1573467905527008e-02  1.2111140156109059e-02  -1.1960296407398643e-02  1.0775625195477348e-02  -8.4335724445268670e-03  5.0684479710986661e-03  -1.0491660117149793e-03  -1.7558357913277590e-03  8.4335724657263605e-03  -1.3957428633332486e-02  1.7679874097478815e-02  -1.9367328961684541e-02  1.9245479536990920e-02  -1.7934444014306140e-02  1.6289120362985854e-02  -1.5183428960111718e-02  1.5290901358022493e-02  -1.6914969849320078e-02  1.9910240249117514e-02  -2.3713933017468471e-02  2.7479922706092244e-02  -3.0282886732428304e-02  3.1343039373805649e-02  -3.0216910001315603e-02  2.6907843734567970e-02  -2.1869363596340421e-02  1.5900513450798327e-02  -9.9584959845128492e-03  4.9339730629626025e-03  -1.4434407799544613e-03  -3.1106637157852260e-04  5.8103930102492438e-04  3.0128143136850283e-14  -5.8103930108219411e-04  3.1106637162739957e-04  1.4434407799182977e-03  -4.9339730629414102e-03  9.9584959845071940e-03  -1.5900513450806689e-02  2.1869363596359638e-02  -2.6907843734593550e-02  3.0216910001342877e-02  -3.1343039373830046e-02  3.0282886732446983e-02  -2.7479922706102684e-02  2.3713933017470559e-02  -1.9910240249111654e-02  1.6914969849308587e-02  -1.5290901358007742e-02  1.5183428960096262e-02  -1.6289120362971362e-02  1.7934444014294264e-02  -1.9245479536982590e-02  1.9367328961679718e-02  -1.7679874097476723e-02  1.3957428633331888e-02  -8.4335724657263970e-03  1.7558357913277894e-03  2.2472532084726196e-03  -1.0775625269644571e-02  1.7679874175772645e-02  -2.2055419989804290e-02  2.3584390644283568e-02  -2.2601182762561775e-02  2.0000302686445648e-02  -1.7009103185057335e-02  1.4880699168058819e-02  -1.4581708915287017e-02  1.6550717657726734e-02  -2.0586184315019782e-02  2.5891080879600323e-02  -3.1263497352291711e-02  3.5387000002712179e-02  -3.7150299502393944e-02  3.5918649037197048e-02  -3.1691083117399169e-02  2.5105288786244830e-02  -1.7288855059201334e-02  9.5929060720769260e-03  -3.2726467783565859e-03  -8.0778460010879803e-04  2.3746776827665581e-03  -1.8001037543133947e-03  -3.4958937515873827e-14  1.8001037543796821e-03  -2.3746776828219508e-03  8.0778460014829519e-04  3.2726467783359167e-03  -9.5929060720754324e-03  1.7288855059216842e-02  -2.5105288786273366e-02  3.1691083117434807e-02  -3.5918649037233318e-02  3.7150299502425523e-02  -3.5387000002734856e-02  3.1263497352303396e-02  -2.5891080879600483e-02  2.0586184315010237e-02  -1.6550717657710160e-02  1.4581708915267156e-02  -1.4880699168038648e-02  1.7009103185039426e-02  -2.0000302686431670e-02  2.2601182762552578e-02  -2.3584390644279106e-02  2.2055419989803038e-02  -1.7679874175773127e-02  1.0775625269645230e-02  -2.2472532084727445e-03  -2.4997883542589813e-03  1.1960296569039949e-02  -1.9367329180484401e-02  2.3584390812789392e-02  -2.4225808502102042e-02  2.1740530588520050e-02  -1.7293816555749620e-02  1.2475742542422303e-02  -8.9074110806897679e-03  7.8405510923389276e-03  -9.8477823084607372e-03  1.4678801028052526e-02  -2.1317462125823236e-02  2.8225960983808626e-02  -3.3716894714314251e-02  3.6362928612445618e-02  -3.5344647622593144e-02  3.0652153658345824e-02  -2.3091442631009179e-02  1.4093951790580294e-02  -5.3754162909031610e-03  -1.4732734592370991e-03  5.3640353987325137e-03  -5.9667821057059539e-03  3.7800385028419871e-03  3.3170707572493125e-14  -3.7800385029039298e-03  5.9667821057560327e-03  -5.3640353987652002e-03  1.4732734592495253e-03  5.3754162909108458e-03  -1.4093951790605403e-02  2.3091442631046868e-02  -3.0652153658389001e-02  3.5344647622634923e-02  -3.6362928612479889e-02  3.3716894714337128e-02  -2.8225960983817709e-02  2.1317462125819336e-02  -1.4678801028037727e-02  9.8477823084393828e-03  -7.8405510923150769e-03  8.9074110806673847e-03  -1.2475742542403641e-02  1.7293816555736294e-02  -2.1740530588512823e-02  2.4225808502099665e-02  -2.3584390812790623e-02  1.9367329180486864e-02  -1.1960296569041963e-02  2.4997883542594306e-03  2.5390766445254702e-03  -1.2111140433283853e-02  1.9245479947273547e-02  -2.2601183174288376e-02  2.1740530856111200e-02  -1.7229446487014764e-02  1.0494649560851181e-02  -3.4722845989363731e-03  -1.8666123098274381e-03  3.9985739377442911e-03  -2.2209417453134470e-03  -3.1747466583356893e-03  1.0971343933336229e-02  -1.9320042056932607e-02  2.6188370665897326e-02  -2.9853535127502433e-02  2.9321369863400192e-02  -2.4569222148135374e-02  1.6553798255848264e-02  -6.9820312037133627e-03  -2.0994717099544129e-03  8.7968264536740660e-03  -1.1823686701518179e-02  1.0808175521685481e-02  -6.3775294405520955e-03  -2.5538565690650383e-14  6.3775294405989504e-03  -1.0808175521720302e-02  1.1823686701536013e-02  -8.7968264536726088e-03  2.0994717099341387e-03  6.9820312037488343e-03  -1.6553798255893211e-02  2.4569222148182718e-02  -2.9321369863442789e-02  2.9853535127534525e-02  -2.6188370665915311e-02  1.9320042056935532e-02  -1.0971343933325507e-02  3.1747466583149577e-03  2.2209417453394036e-03  -3.9985739377701281e-03  1.8666123098496686e-03  3.4722845989201257e-03  -1.0494649560841778e-02  1.7229446487012252e-02  -2.1740530856113830e-02  2.2601183174294007e-02  -1.9245479947279487e-02  1.2111140433287928e-02  -2.5390766445262634e-03  -2.4360303353417423e-03  1.1573468311998467e-02  -1.7934444641834121e-02  2.0000303380693911e-02  -1.7293817145314198e-02  1.0494649898909622e-02  -1.2740740065114932e-03  -8.1109398072690062e-03  1.5365743643337829e-02  -1.8715143677460681e-02  1.7334431861602134e-02  -1.1549711730543265e-02  2.7589004899063476e-03  6.9074236199561092e-03  -1.5103024851183297e-02  1.9835399100183473e-02  -1.9949369736944177e-02  1.5407530582537424e-02  -7.2994766050642722e-03  -2.4224203822810785e-03  1.1416572707837452e-02  -1.7520155247113509e-02  1.9273669403625428e-02  -1.6274797005469532e-02  9.2756764969197051e-03  1.4414228066603849e-14  -9.2756764969447007e-03  1.6274797005483753e-02  -1.9273669403624506e-02  1.7520155247095878e-02  -1.1416572707804631e-02  2.4224203822374208e-03  7.2994766051127152e-03  -1.5407530582583555e-02  1.9949369736981640e-02  -1.9835399100207325e-02  1.5103024851191606e-02  -6.9074236199490237e-03  -2.7589004899257800e-03  1.1549711730570393e-02  -1.7334431861631260e-02  1.8715143677486803e-02  -1.5365743643357289e-02  8.1109398072801587e-03  1.2740740065090453e-03  -1.0494649898914424e-02  1.7293817145323975e-02  -2.0000303380705714e-02  1.7934444641844682e-02  -1.1573468312005217e-02  2.4360303353431448e-03  2.2887291217441753e-03  -1.0824806508110641e-02  1.6289121200119820e-02  -1.7009104154025144e-02  1.2475743448598847e-02  -3.4722852743428660e-03  -8.1109394640024243e-03  1.9730702937516505e-02  -2.8803930054508157e-02  3.3330898240589567e-02  -3.2377405447668990e-02  2.6298942169432255e-02  -1.6652504716920102e-02  5.8174803953163429e-03  3.5823727135859112e-03  -9.3155689050773826e-03  1.0083662460395205e-02  -5.8349186821549208e-03  -2.2252108572672655e-03  1.1929318940868988e-02  -2.0677291515805177e-02  2.6071086929510226e-02  -2.6500939776427451e-02  2.1540664562974772e-02  -1.2056055616034586e-02  -2.8074766958876928e-15  1.2056055616037044e-02  -2.1540664562968308e-02  2.6500939776408595e-02  -2.6071086929478546e-02  2.0677291515763318e-02  -1.1929318940821859e-02  2.2252108572211396e-03  5.8349186821937630e-03  -1.0083662460421328e-02  9.3155689050878846e-03  -3.5823727135803267e-03  -5.8174803953357761e-03  1.6652504716949127e-02  -2.6298942169465097e-02  3.2377405447699660e-02  -3.3330898240613339e-02  2.8803930054522316e-02  -1.9730702937519756e-02  8.1109394639958792e-03  3.4722852743569016e-03  -1.2475743448616983e-02  1.7009104154043858e-02  -1.6289121200135495e-02  1.0824806508120234e-02  -2.2887291217461659e-03  -2.1975299952545009e-03  1.0353707620119151e-02  -1.5183429965428603e-02  1.4880700356252205e-02  -8.9074122375464738e-03  -1.8666113700450790e-03  1.5365743034284804e-02  -2.8803929791942597e-02  3.9353236956304945e-02  -4.4823432191741439e-02  4.4187792359834804e-02  -3.7827619123601872e-02  2.7436196347379493e-02  -1.5605551027794389e-02  5.1963378846680043e-03  1.3562200209247944e-03  -2.6319037367333142e-03  -1.4324709599945603e-03  9.5315276438136705e-03  -1.9313046203258251e-02  2.7954772601020590e-02  -3.2856249634374821e-02  3.2277669048741894e-02  -2.5770589085541189e-02  1.4295860149530968e-02  -6.4640929109647090e-15  -1.4295860149515484e-02  2.5770589085518828e-02  -3.2277669048710399e-02  3.2856249634334728e-02  -2.7954772600975685e-02  1.9313046203213783e-02  -9.5315276437757512e-03  1.4324709599687429e-03  2.6319037367436219e-03  -1.3562200209183903e-03  -5.1963378846896129e-03  1.5605551027827290e-02  -2.7436196347417528e-02  3.7827619123638828e-02  -4.4187792359864773e-02  4.4823432191760645e-02  -3.9353236956311183e-02  2.8803929791936387e-02  -1.5365743034268001e-02  1.8666113700213170e-03  8.9074122375732284e-03  -1.4880700356277598e-02  1.5183429965449056e-02  -1.0353707620131533e-02  2.1975299952571013e-03  2.2397218011969231e-03  -1.0536468661668352e-02  1.5290902463869356e-02  -1.4581710230211254e-02  7.8405523869942793e-03  3.9985728625163836e-03  -1.8715142944076751e-02  3.3330897867156123e-02  -4.4823432090130975e-02  5.0851559820133334e-02  -5.0316548554132354e-02  4.3623128591399836e-02  -3.2577024231879380e-02  1.9943939446092282e-02  -8.7770661597464036e-03  1.6763348045907695e-03  -1.5916805623713746e-04  4.2954158820124877e-03  -1.2695015950418234e-02  2.2851302437441018e-02  -3.1756557033488043e-02  3.6640309081989925e-02  -3.5651085426724037e-02  2.8316018336153149e-02  -1.5666615454720843e-02  1.1354919987034630e-14  1.5666615454695970e-02  -2.8316018336123350e-02  3.5651085426688149e-02  -3.6640309081949540e-02  3.1756557033447250e-02  -2.2851302437405498e-02  1.2695015950393735e-02  -4.2954158820029337e-03  1.5916805624465014e-04  -1.6763348046146065e-03  8.7770661597833099e-03  -1.9943939446136715e-02  3.2577024231924150e-02  -4.3623128591438055e-02  5.0316548554159089e-02  -5.0851559820145470e-02  4.4823432090128262e-02  -3.3330897867139657e-02  1.8715142944049967e-02  -3.9985728624834958e-03  -7.8405523870281688e-03  1.4581710230242241e-02  -1.5290902463893440e-02  1.0536468661682771e-02  -2.2397218011998344e-03  -2.4499186328254450e-03  1.1541771430875262e-02  -1.6914970975508588e-02  1.6550718989307586e-02  -9.8477836058849764e-03  -2.2209406897712109e-03  1.7334431175088611e-02  -3.2377405147888845e-02  4.4187792353055699e-02  -5.0316548660502752e-02  4.9615537747284770e-02  -4.2510914599779098e-02  3.0895747925436132e-02  -1.7668001140889282e-02  6.0260345176940608e-03  1.3073861144063676e-03  -2.7442606646235082e-03  -1.7862358459776681e-03  1.0824862196784255e-02  -2.1741999750801485e-02  3.1382546023816904e-02  -3.6839406722626838e-02  3.6167755343684563e-02  -2.8866589250000733e-02  1.6010570777396559e-02  -1.1134314204042387e-14  -1.6010570777372959e-02  2.8866589249973505e-02  -3.6167755343653379e-02  3.6839406722593823e-02  -3.1382546023786762e-02  2.1741999750779444e-02  -1.0824862196775241e-02  1.7862358459849986e-03  2.7442606645996172e-03  -1.3073861143681235e-03  -6.0260345177421274e-03  1.7668001140940460e-02  -3.0895747925483150e-02  4.2510914599814965e-02  -4.9615537747305462e-02  5.0316548660506617e-02  -4.4187792353043251e-02  3.2377405147863123e-02  -1.7334431175053188e-02  2.2209406897319432e-03  9.8477836059236053e-03  -1.6550718989341219e-02  1.6914970975534131e-02  -1.1541771430890118e-02  2.4499186328284413e-03  2.8109673439748201e-03  -1.3286458017963952e-02  1.9910241319475590e-02  -2.0586185559085951e-02  1.4678802201067688e-02  -3.1747475488721265e-03  -1.1549711250404522e-02  2.6298942114420860e-02  -3.7827619393255921e-02  4.3623128996204144e-02  -4.2510914909073154e-02  3.4935931303227169e-02  -2.2851953796135568e-02  9.2456538227494445e-03  2.5890392161663353e-03  -9.8501784464785410e-03  1.0906686348771760e-02  -5.6921538473811428e-03  -4.2819830866007332e-03  1.6297041064672751e-02  -2.7091465800579691e-02  3.3657685994705984e-02  -3.3977982432586908e-02  2.7520699927912080e-02  -1.5376280900739912e-02  5.8359936184522444e-15  1.5376280900726833e-02  -2.7520699927896280e-02  3.3977982432568166e-02  -3.3657685994686729e-02  2.7091465800563989e-02  -1.6297041064665584e-02  4.2819830866064508e-03  5.6921538473603704e-03  -1.0906686348736231e-02  9.8501784464316584e-03  -2.5890392161135182e-03  -9.2456538228010907e-03  2.2851953796178725e-02  -3.4935931303256056e-02  4.2510914909084777e-02  -4.3623128996198010e-02  3.7827619393234022e-02  -2.6298942114387078e-02  1.1549711250363817e-02  3.1747475489144286e-03  -1.4678802201106808e-02  2.0586185559118689e-02  -1.9910241319499252e-02  1.3286458017977459e-02  -2.8109673439775419e-03  -3.2575873663508110e-03  1.5453227806187745e-02  -2.3713933975281001e-02  2.5891081959780966e-02  -2.1317463083067555e-02  1.0971344556912297e-02  2.7589003253512346e-03  -1.6652505021339838e-02  2.7436197013376865e-02  -3.2577025061286687e-02  3.0895748677970580e-02  -2.2851954248312739e-02  1.0431723186564516e-02  3.3348746234860478e-03  -1.5109359865677971e-02  2.2054982392090111e-02  -2.2524817071796092e-02  1.6460836257930257e-02  -5.4071223849536847e-03  -7.8659717404976886e-03  2.0035488886187936e-02  -2.8033853936266132e-02  2.9795075480442381e-02  -2.4758047988503788e-02  1.4004784198430379e-02  2.5225854510648911e-15  -1.4004784198434296e-02  2.4758047988504697e-02  -2.9795075480440147e-02  2.8033853936262898e-02  -2.0035488886187235e-02  7.8659717405035762e-03  5.4071223849372898e-03  -1.6460836257901602e-02  2.2524817071756079e-02  -2.2054982392042531e-02  1.5109359865628407e-02  -3.3348746234413253e-03  -1.0431723186598017e-02  2.2851954248330385e-02  -3.0895748677970958e-02  3.2577025061270554e-02  -2.7436197013347170e-02  1.6652505021301462e-02  -2.7589003253092625e-03  -1.0971344556952364e-02  2.1317463083102336e-02  -2.5891081959807861e-02  2.3713933975299275e-02  -1.5453227806197482e-02  3.2575873663528267e-03  3.6918679155004937e-03  -1.7566000914731365e-02  2.7479923524726311e-02  -3.1263498235064711e-02  2.8225961688920838e-02  -1.9320042377937090e-02  6.9074234364047112e-03  5.8174810879852781e-03  -1.5605552116389936e-02  1.9943940726291676e-02  -1.7668002365897325e-02  9.2456547622030028e-03  3.3348741286475590e-03  -1.7046686769446050e-02  2.8558374672969410e-02  -3.5042536912307513e-02  3.4862447917052307e-02  -2.7970227508013677e-02  1.5919871366821898e-02  -1.4919584208146087e-03  -1.1978917250023060e-02  2.1410806156483133e-02  -2.4719435444381918e-02  2.1320854631919198e-02  -1.2269762695559188e-02  -1.1980056656528522e-14  1.2269762695581540e-02  -2.1320854631937915e-02  2.4719435444396119e-02  -2.1410806156494485e-02  1.1978917250034037e-02  1.4919584208002872e-03  -1.5919871366801213e-02  2.7970227507984821e-02  -3.4862447917016502e-02  3.5042536912268170e-02  -2.8558374672931396e-02  1.7046686769415297e-02  -3.3348741286288045e-03  -9.2456547622070187e-03  1.7668002365885765e-02  -1.9943940726266821e-02  1.5605552116355670e-02  -5.8174810879468583e-03  -6.9074234364422341e-03  1.9320042377969533e-02  -2.8225961688945814e-02  3.1263498235081587e-02  -2.7479923524735904e-02  1.7566000914735716e-02  -3.6918679155011486e-03  -4.0068671933578956e-03  1.9104684808392988e-02  -3.0282887418617635e-02  3.5387000702007600e-02  -3.3716895191731232e-02  2.6188370721917317e-02  -1.5103024371466416e-02  3.5823716982745554e-03  5.1963393191865577e-03  -8.7770678070762283e-03  6.0260361293280910e-03  2.5890378728760399e-03  -1.5109358953510803e-02  2.8558374247854450e-02  -3.9663161744084290e-02  4.5648836975749826e-02  -4.4913190731869397e-02  3.7417819108695065e-02  -2.4700791825188841e-02  9.5077331170109868e-03  4.8692227963112455e-03  -1.5384261487025258e-02  1.9970194822542264e-02  -1.8032635015495860e-02  1.0586226637316091e-02  1.9824206991988699e-14  -1.0586226637353823e-02  1.8032635015528670e-02  -1.9970194822568659e-02  1.5384261487045867e-02  -4.8692227963281400e-03  -9.5077331169950950e-03  2.4700791825171195e-02  -3.7417819108674095e-02  4.4913190731845722e-02  -4.5648836975726206e-02  3.9663161744064326e-02  -2.8558374247842348e-02  1.5109358953509544e-02  -2.5890378728868155e-03  -6.0260361293060219e-03  8.7770678070458307e-03  -5.1963393191521556e-03  -3.5823716983075077e-03  1.5103024371493762e-02  -2.6188370721936017e-02  3.3716895191741036e-02  -3.5387000702009987e-02  3.0282887418615637e-02  -1.9104684808390053e-02  4.0068671933572286e-03  4.1125891019682956e-03  -1.9631504698979198e-02  3.1343039962842545e-02  -3.7150300072688394e-02  3.6362928938449612e-02  -2.9853535018417188e-02  1.9835398447987013e-02  -9.3155677128175882e-03  1.3562184043779599e-03  1.6763366423342635e-03  1.3073842995080297e-03  -9.8501768833154143e-03  2.2054981242122594e-02  -3.5042536233750941e-02  4.5648836712858083e-02  -5.1193155961564117e-02  5.0130248226313082e-02  -4.2428430736298685e-02  2.9581745486546646e-02  -1.4253180478697176e-02  -3.6455646991281611e-04  1.1315693450360542e-02  -1.6589554837136557e-02  1.5598512430065209e-02  -9.3098935159547144e-03  -2.4226781895020486e-14  9.3098935160007609e-03  -1.5598512430105189e-02  1.6589554837168154e-02  -1.1315693450383716e-02  3.6455646992857922e-04  1.4253180478686175e-02  -2.9581745486538347e-02  4.2428430736291357e-02  -5.0130248226306816e-02  5.1193155961560162e-02  -4.5648836712858978e-02  3.5042536233758755e-02  -2.2054981242138703e-02  9.8501768833392546e-03  -1.3073842995377542e-03  -1.6763366423022577e-03  -1.3562184044075872e-03  9.3155677128399627e-03  -1.9835398447999034e-02  2.9853535018417750e-02  -3.6362928938440356e-02  3.7150300072673406e