<?xml version="1.0"?>
<VTKFile type="UnstructuredGrid"  version="0.1"  >
<UnstructuredGrid>
<Piece  NumberOfPoints="2601" NumberOfCells="5000">
<Points>
<DataArray  type="Float64"  NumberOfComponents="3"  format="ascii">-10 -10 0  -9.6 -10 0  -9.199999999999999 -10 0  -8.800000000000001 -10 0  -8.4 -10 0  -8 -10 0  -7.6 -10 0  -7.2 -10 0  -6.8 -10 0  -6.4 -10 0  -6 -10 0  -5.6 -10 0  -5.2 -10 0  -4.8 -10 0  -4.4 -10 0  -4 -10 0  -3.6 -10 0  -3.2 -10 0  -2.8 -10 0  -2.4 -10 0  -2 -10 0  -1.6 -10 0  -1.199999999999999 -10 0  -0.8000000000000007 -10 0  -0.4000000000000004 -10 0  0 -10 0  0.4000000000000004 -10 0  0.8000000000000007 -10 0  1.199999999999999 -10 0  1.6 -10 0  2 -10 0  2.4 -10 0  2.800000000000001 -10 0  3.199999999999999 -10 0  3.6 -10 0  4 -10 0  4.4 -10 0  4.800000000000001 -10 0  5.199999999999999 -10 0  5.6 -10 0  6 -10 0  6.399999999999999 -10 0  6.800000000000001 -10 0  7.199999999999999 -10 0  7.600000000000001 -10 0  8 -10 0  8.399999999999999 -10 0  8.800000000000001 -10 0  9.199999999999999 -10 0  9.600000000000001 -10 0  10 -10 0  -10 -9.6 0  -9.6 -9.6 0  -9.199999999999999 -9.6 0  -8.800000000000001 -9.6 0  -8.4 -9.6 0  -8 -9.6 0  -7.6 -9.6 0  -7.2 -9.6 0  -6.8 -9.6 0  -6.4 -9.6 0  -6 -9.6 0  -5.6 -9.6 0  -5.2 -9.6 0  -4.8 -9.6 0  -4.4 -9.6 0  -4 -9.6 0  -3.6 -9.6 0  -3.2 -9.6 0  -2.8 -9.6 0  -2.4 -9.6 0  -2 -9.6 0  -1.6 -9.6 0  -1.199999999999999 -9.6 0  -0.8000000000000007 -9.6 0  -0.4000000000000004 -9.6 0  0 -9.6 0  0.4000000000000004 -9.6 0  0.8000000000000007 -9.6 0  1.199999999999999 -9.6 0  1.6 -9.6 0  2 -9.6 0  2.4 -9.6 0  2.800000000000001 -9.6 0  3.199999999999999 -9.6 0  3.6 -9.6 0  4 -9.6 0  4.4 -9.6 0  4.800000000000001 -9.6 0  5.199999999999999 -9.6 0  5.6 -9.6 0  6 -9.6 0  6.399999999999999 -9.6 0  6.800000000000001 -9.6 0  7.199999999999999 -9.6 0  7.600000000000001 -9.6 0  8 -9.6 0  8.399999999999999 -9.6 0  8.800000000000001 -9.6 0  9.199999999999999 -9.6 0  9.600000000000001 -9.6 0  10 -9.6 0  -10 -9.199999999999999 0  -9.6 -9.199999999999999 0  -9.199999999999999 -9.199999999999999 0  -8.800000000000001 -9.199999999999999 0  -8.4 -9.199999999999999 0  -8 -9.199999999999999 0  -7.6 -9.199999999999999 0  -7.2 -9.199999999999999 0  -6.8 -9.199999999999999 0  -6.4 -9.199999999999999 0  -6 -9.199999999999999 0  -5.6 -9.199999999999999 0  -5.2 -9.199999999999999 0  -4.8 -9.199999999999999 0  -4.4 -9.199999999999999 0  -4 -9.199999999999999 0  -3.6 -9.199999999999999 0  -3.2 -9.199999999999999 0  -2.8 -9.199999999999999 0  -2.4 -9.199999999999999 0  -2 -9.199999999999999 0  -1.6 -9.199999999999999 0  -1.199999999999999 -9.199999999999999 0  -0.8000000000000007 -9.199999999999999 0  -0.4000000000000004 -9.199999999999999 0  0 -9.199999999999999 0  0.4000000000000004 -9.199999999999999 0  0.8000000000000007 -9.199999999999999 0  1.199999999999999 -9.199999999999999 0  1.6 -9.199999999999999 0  2 -9.199999999999999 0  2.4 -9.199999999999999 0  2.800000000000001 -9.199999999999999 0  3.199999999999999 -9.199999999999999 0  3.6 -9.199999999999999 0  4 -9.199999999999999 0  4.4 -9.199999999999999 0  4.800000000000001 -9.199999999999999 0  5.199999999999999 -9.199999999999999 0  5.6 -9.199999999999999 0  6 -9.199999999999999 0  6.399999999999999 -9.199999999999999 0  6.800000000000001 -9.199999999999999 0  7.199999999999999 -9.199999999999999 0  7.600000000000001 -9.199999999999999 0  8 -9.199999999999999 0  8.399999999999999 -9.199999999999999 0  8.800000000000001 -9.199999999999999 0  9.199999999999999 -9.199999999999999 0  9.600000000000001 -9.199999999999999 0  10 -9.199999999999999 0  -10 -8.800000000000001 0  -9.6 -8.800000000000001 0  -9.199999999999999 -8.800000000000001 0  -8.800000000000001 -8.800000000000001 0  -8.4 -8.800000000000001 0  -8 -8.800000000000001 0  -7.6 -8.800000000000001 0  -7.2 -8.800000000000001 0  -6.8 -8.800000000000001 0  -6.4 -8.800000000000001 0  -6 -8.800000000000001 0  -5.6 -8.800000000000001 0  -5.2 -8.800000000000001 0  -4.8 -8.800000000000001 0  -4.4 -8.800000000000001 0  -4 -8.800000000000001 0  -3.6 -8.800000000000001 0  -3.2 -8.800000000000001 0  -2.8 -8.800000000000001 0  -2.4 -8.800000000000001 0  -2 -8.800000000000001 0  -1.6 -8.800000000000001 0  -1.199999999999999 -8.800000000000001 0  -0.8000000000000007 -8.800000000000001 0  -0.4000000000000004 -8.800000000000001 0  0 -8.800000000000001 0  0.4000000000000004 -8.800000000000001 0  0.8000000000000007 -8.800000000000001 0  1.199999999999999 -8.800000000000001 0  1.6 -8.800000000000001 0  2 -8.800000000000001 0  2.4 -8.800000000000001 0  2.800000000000001 -8.800000000000001 0  3.199999999999999 -8.800000000000001 0  3.6 -8.800000000000001 0  4 -8.800000000000001 0  4.4 -8.800000000000001 0  4.800000000000001 -8.800000000000001 0  5.199999999999999 -8.800000000000001 0  5.6 -8.800000000000001 0  6 -8.800000000000001 0  6.399999999999999 -8.800000000000001 0  6.800000000000001 -8.800000000000001 0  7.199999999999999 -8.800000000000001 0  7.600000000000001 -8.800000000000001 0  8 -8.800000000000001 0  8.399999999999999 -8.800000000000001 0  8.800000000000001 -8.800000000000001 0  9.199999999999999 -8.800000000000001 0  9.600000000000001 -8.800000000000001 0  10 -8.800000000000001 0  -10 -8.4 0  -9.6 -8.4 0  -9.199999999999999 -8.4 0  -8.800000000000001 -8.4 0  -8.4 -8.4 0  -8 -8.4 0  -7.6 -8.4 0  -7.2 -8.4 0  -6.8 -8.4 0  -6.4 -8.4 0  -6 -8.4 0  -5.6 -8.4 0  -5.2 -8.4 0  -4.8 -8.4 0  -4.4 -8.4 0  -4 -8.4 0  -3.6 -8.4 0  -3.2 -8.4 0  -2.8 -8.4 0  -2.4 -8.4 0  -2 -8.4 0  -1.6 -8.4 0  -1.199999999999999 -8.4 0  -0.8000000000000007 -8.4 0  -0.4000000000000004 -8.4 0  0 -8.4 0  0.4000000000000004 -8.4 0  0.8000000000000007 -8.4 0  1.199999999999999 -8.4 0  1.6 -8.4 0  2 -8.4 0  2.4 -8.4 0  2.800000000000001 -8.4 0  3.199999999999999 -8.4 0  3.6 -8.4 0  4 -8.4 0  4.4 -8.4 0  4.800000000000001 -8.4 0  5.199999999999999 -8.4 0  5.6 -8.4 0  6 -8.4 0  6.399999999999999 -8.4 0  6.800000000000001 -8.4 0  7.199999999999999 -8.4 0  7.600000000000001 -8.4 0  8 -8.4 0  8.399999999999999 -8.4 0  8.800000000000001 -8.4 0  9.199999999999999 -8.4 0  9.600000000000001 -8.4 0  10 -8.4 0  -10 -8 0  -9.6 -8 0  -9.199999999999999 -8 0  -8.800000000000001 -8 0  -8.4 -8 0  -8 -8 0  -7.6 -8 0  -7.2 -8 0  -6.8 -8 0  -6.4 -8 0  -6 -8 0  -5.6 -8 0  -5.2 -8 0  -4.8 -8 0  -4.4 -8 0  -4 -8 0  -3.6 -8 0  -3.2 -8 0  -2.8 -8 0  -2.4 -8 0  -2 -8 0  -1.6 -8 0  -1.199999999999999 -8 0  -0.8000000000000007 -8 0  -0.4000000000000004 -8 0  0 -8 0  0.4000000000000004 -8 0  0.8000000000000007 -8 0  1.199999999999999 -8 0  1.6 -8 0  2 -8 0  2.4 -8 0  2.800000000000001 -8 0  3.199999999999999 -8 0  3.6 -8 0  4 -8 0  4.4 -8 0  4.800000000000001 -8 0  5.199999999999999 -8 0  5.6 -8 0  6 -8 0  6.399999999999999 -8 0  6.800000000000001 -8 0  7.199999999999999 -8 0  7.600000000000001 -8 0  8 -8 0  8.399999999999999 -8 0  8.800000000000001 -8 0  9.199999999999999 -8 0  9.600000000000001 -8 0  10 -8 0  -10 -7.6 0  -9.6 -7.6 0  -9.199999999999999 -7.6 0  -8.800000000000001 -7.6 0  -8.4 -7.6 0  -8 -7.6 0  -7.6 -7.6 0  -7.2 -7.6 0  -6.8 -7.6 0  -6.4 -7.6 0  -6 -7.6 0  -5.6 -7.6 0  -5.2 -7.6 0  -4.8 -7.6 0  -4.4 -7.6 0  -4 -7.6 0  -3.6 -7.6 0  -3.2 -7.6 0  -2.8 -7.6 0  -2.4 -7.6 0  -2 -7.6 0  -1.6 -7.6 0  -1.199999999999999 -7.6 0  -0.8000000000000007 -7.6 0  -0.4000000000000004 -7.6 0  0 -7.6 0  0.4000000000000004 -7.6 0  0.8000000000000007 -7.6 0  1.199999999999999 -7.6 0  1.6 -7.6 0  2 -7.6 0  2.4 -7.6 0  2.800000000000001 -7.6 0  3.199999999999999 -7.6 0  3.6 -7.6 0  4 -7.6 0  4.4 -7.6 0  4.800000000000001 -7.6 0  5.199999999999999 -7.6 0  5.6 -7.6 0  6 -7.6 0  6.399999999999999 -7.6 0  6.800000000000001 -7.6 0  7.199999999999999 -7.6 0  7.600000000000001 -7.6 0  8 -7.6 0  8.399999999999999 -7.6 0  8.800000000000001 -7.6 0  9.199999999999999 -7.6 0  9.600000000000001 -7.6 0  10 -7.6 0  -10 -7.2 0  -9.6 -7.2 0  -9.199999999999999 -7.2 0  -8.800000000000001 -7.2 0  -8.4 -7.2 0  -8 -7.2 0  -7.6 -7.2 0  -7.2 -7.2 0  -6.8 -7.2 0  -6.4 -7.2 0  -6 -7.2 0  -5.6 -7.2 0  -5.2 -7.2 0  -4.8 -7.2 0  -4.4 -7.2 0  -4 -7.2 0  -3.6 -7.2 0  -3.2 -7.2 0  -2.8 -7.2 0  -2.4 -7.2 0  -2 -7.2 0  -1.6 -7.2 0  -1.199999999999999 -7.2 0  -0.8000000000000007 -7.2 0  -0.4000000000000004 -7.2 0  0 -7.2 0  0.4000000000000004 -7.2 0  0.8000000000000007 -7.2 0  1.199999999999999 -7.2 0  1.6 -7.2 0  2 -7.2 0  2.4 -7.2 0  2.800000000000001 -7.2 0  3.199999999999999 -7.2 0  3.6 -7.2 0  4 -7.2 0  4.4 -7.2 0  4.800000000000001 -7.2 0  5.199999999999999 -7.2 0  5.6 -7.2 0  6 -7.2 0  6.399999999999999 -7.2 0  6.800000000000001 -7.2 0  7.199999999999999 -7.2 0  7.600000000000001 -7.2 0  8 -7.2 0  8.399999999999999 -7.2 0  8.800000000000001 -7.2 0  9.199999999999999 -7.2 0  9.600000000000001 -7.2 0  10 -7.2 0  -10 -6.8 0  -9.6 -6.8 0  -9.199999999999999 -6.8 0  -8.800000000000001 -6.8 0  -8.4 -6.8 0  -8 -6.8 0  -7.6 -6.8 0  -7.2 -6.8 0  -6.8 -6.8 0  -6.4 -6.8 0  -6 -6.8 0  -5.6 -6.8 0  -5.2 -6.8 0  -4.8 -6.8 0  -4.4 -6.8 0  -4 -6.8 0  -3.6 -6.8 0  -3.2 -6.8 0  -2.8 -6.8 0  -2.4 -6.8 0  -2 -6.8 0  -1.6 -6.8 0  -1.199999999999999 -6.8 0  -0.8000000000000007 -6.8 0  -0.4000000000000004 -6.8 0  0 -6.8 0  0.4000000000000004 -6.8 0  0.8000000000000007 -6.8 0  1.199999999999999 -6.8 0  1.6 -6.8 0  2 -6.8 0  2.4 -6.8 0  2.800000000000001 -6.8 0  3.199999999999999 -6.8 0  3.6 -6.8 0  4 -6.8 0  4.4 -6.8 0  4.800000000000001 -6.8 0  5.199999999999999 -6.8 0  5.6 -6.8 0  6 -6.8 0  6.399999999999999 -6.8 0  6.800000000000001 -6.8 0  7.199999999999999 -6.8 0  7.600000000000001 -6.8 0  8 -6.8 0  8.399999999999999 -6.8 0  8.800000000000001 -6.8 0  9.199999999999999 -6.8 0  9.600000000000001 -6.8 0  10 -6.8 0  -10 -6.4 0  -9.6 -6.4 0  -9.199999999999999 -6.4 0  -8.800000000000001 -6.4 0  -8.4 -6.4 0  -8 -6.4 0  -7.6 -6.4 0  -7.2 -6.4 0  -6.8 -6.4 0  -6.4 -6.4 0  -6 -6.4 0  -5.6 -6.4 0  -5.2 -6.4 0  -4.8 -6.4 0  -4.4 -6.4 0  -4 -6.4 0  -3.6 -6.4 0  -3.2 -6.4 0  -2.8 -6.4 0  -2.4 -6.4 0  -2 -6.4 0  -1.6 -6.4 0  -1.199999999999999 -6.4 0  -0.8000000000000007 -6.4 0  -0.4000000000000004 -6.4 0  0 -6.4 0
[...]
<PointData  Scalars="f_379"> 
<DataArray  type="Float64"  Name="f_379"  format="ascii">-4.4239148481294492e-13  6.2526390575065780e-06  -7.2539336790132354e-05  2.3437106216165032e-04  -5.0760143666118876e-04  8.8389457866480811e-04  -1.3300691199942837e-03  1.7915198310996961e-03  -2.1993163431492440e-03  2.4800273101525210e-03  -2.5668966685377004e-03  2.4107673523241701e-03  -1.9891415396281324e-03  1.3119886347464662e-03  -4.2333426371974584e-04  -6.0177095612004637e-04  1.6646721389961131e-03  -2.6540779159853335e-03  3.4592261160061632e-03  -3.9835673078019683e-03  4.1571784702760343e-03  -3.9462516027110976e-03  3.3583592267002606e-03  -2.4427340979996780e-03  1.2854431575730135e-03  7.8354098794084877e-15  -1.2854431575864810e-03  2.4427340980105587e-03  -3.3583592267049070e-03  3.9462516027088355e-03  -4.1571784702656538e-03  3.9835673077852829e-03  -3.4592261159847506e-03  2.6540779159619078e-03  -1.6646721389724987e-03  6.0177095609981906e-04  4.2333426373547837e-04  -1.3119886347570976e-03  1.9891415396335356e-03  -2.4107673523255271e-03  2.5668966685353919e-03  -2.4800273101477188e-03  2.1993163431449645e-03  -1.7915198310969778e-03  1.3300691199939409e-03  -8.8389457866764254e-04  5.0760143666608501e-04  -2.3437106216684888e-04  7.2539336794695883e-05  -6.2526390606807882e-06  4.4301285014348916e-13  -6.2526330382157603e-06  -1.4673202335925830e-11  3.0046707924986493e-04  -1.0694458301399260e-03  2.3853108258320072e-03  -4.2083719912557179e-03  6.3776247200885055e-03  -8.6273763265811675e-03  1.0621800709030727e-02  -1.2002787876018581e-02  1.2444400136543882e-02  -1.1706119041417818e-02  9.6770353063997429e-03  -6.4042145527833652e-03  2.1005262180751722e-03  2.8700238387594419e-03  -8.0283392163654384e-03  1.2833560601078729e-02  -1.6747110268814598e-02  1.9299276531177037e-02  -2.0149635636695997e-02  1.9133252765854709e-02  -1.6286341467026937e-02  1.1847666454536738e-02  -6.2351030564034180e-03  -3.8910457803741594e-14  6.2351030564740950e-03  -1.1847666454587784e-02  1.6286341467048233e-02  -1.9133252765840891e-02  2.0149635636646943e-02  -1.9299276531097219e-02  1.6747110268711660e-02  -1.2833560600964158e-02  8.0283392162517567e-03  -2.8700238386595747e-03  -2.1005262181522494e-03  6.4042145528332897e-03  -9.6770353064226516e-03  1.1706119041419204e-02  -1.2444400136530788e-02  1.2002787875997517e-02  -1.0621800709011645e-02  8.6273763265687000e-03  -6.3776247200865981e-03  4.2083719912660005e-03  -2.3853108258531678e-03  1.0694458301660152e-03  -3.0046707927414184e-04  1.4689130867333386e-11  6.2526330350609980e-06  7.2539326535197866e-05  -3.0046702950093941e-04  -4.2125937905218629e-11  1.1444937837862556e-03  -3.2804315629262936e-03  6.3479292412572117e-03  -1.0073620742876330e-02  1.3999123818500749e-02  -1.7540797254287893e-02  2.0072767549751881e-02  -2.1021627831652671e-02  1.9959243674869852e-02  -1.6680032814192513e-02  1.1250947998220023e-02  -4.0259449886856534e-03  -4.3785156077424687e-03  1.3145052163815237e-02  -2.1346986188345577e-02  2.8058678506382388e-02  -3.2470446817506472e-02  3.3993012103462665e-02  -3.2337524801942734e-02  2.7560219329313417e-02  -2.0065247099682843e-02  1.0564646483543425e-02  6.8374693714126821e-14  -1.0564646483668859e-02  2.0065247099774444e-02  -2.7560219329353989e-02  3.2337524801922438e-02  -3.3993012103380821e-02  3.2470446817370859e-02  -2.8058678506206736e-02  2.1346986188150108e-02  -1.3145052163622550e-02  4.3785156075752708e-03  4.0259449888120722e-03  -1.1250947998297857e-02  1.6680032814223152e-02  -1.9959243674861366e-02  2.1021627831618685e-02  -2.0072767549707132e-02  1.7540797254247044e-02  -1.3999123818475503e-02  1.0073620742872892e-02  -6.3479292412763014e-03  3.2804315629639431e-03  -1.1444937838329943e-03  4.2168941216606049e-11  3.0046702947309758e-04  -7.2539326529533641e-05  -2.3437104871036342e-04  1.0694457649093301e-03  -1.1444936734231346e-03  -7.2168686883952524e-11  2.5902023425382016e-03  -6.5641502776892470e-03  1.1562132430811861e-02  -1.6964675369238427e-02  2.1973615791484387e-02  -2.5725354371887013e-02  2.7420489232271188e-02  -2.6451317456971365e-02  2.2508573494352948e-02  -1.5651285537225518e-02  6.3284504512754443e-03  4.6522931926530628e-03  -1.6206558555008539e-02  2.7096198823701498e-02  -3.6078075715672793e-02  4.2059459605119850e-02  -4.4239633350144802e-02  4.2218745844895635e-02  -3.6059011834666796e-02  2.6289452091980831e-02  -1.3852701580039064e-02  -9.6152170268647452e-14  1.3852701580215017e-02  -2.6289452092111081e-02  3.6059011834726429e-02  -4.2218745844871765e-02  4.4239633350036695e-02  -4.2059459604937628e-02  3.6078075715438487e-02  -2.7096198823443107e-02  1.6206558554757399e-02  -4.6522931924393180e-03  -6.3284504514312780e-03  1.5651285537312484e-02  -2.2508573494374011e-02  2.6451317456938753e-02  -2.7420489232204231e-02  2.5725354371808819e-02  -2.1973615791416431e-02  1.6964675369196876e-02  -1.1562132430805066e-02  6.5641502777164075e-03  -2.5902023425917200e-03  7.2234388398619712e-11  1.1444936733632255e-03  -1.0694457648697806e-03  2.3437104870190157e-04  5.0760142132282428e-04  -2.3853107514671019e-03  3.2804314372839646e-03  -2.5902021786054700e-03  -9.2759513922854915e-11  4.4481018501568142e-03  -1.0341750171503190e-02  1.6942769387861926e-02  -2.3284294223085512e-02  2.8307481412856075e-02  -3.1018753365014157e-02  3.0645215471772319e-02  -2.6765699143607932e-02  1.9397868769415339e-02  -9.0276042046882853e-03  -3.4253469580503332e-03  1.6702722683688775e-02  -2.9352902015372721e-02  3.9907604911625899e-02  -4.7067231624969313e-02  4.9870356275761842e-02  -4.7824616730732794e-02  4.0981068488377563e-02  -2.9941359668517312e-02  1.5795864117964385e-02  1.2225443862546156e-13  -1.5795864118187900e-02  2.9941359668684876e-02  -4.0981068488458026e-02  4.7824616730711741e-02  -4.9870356275637295e-02  4.7067231624755117e-02  -3.9907604911349849e-02  2.9352902015071420e-02  -1.6702722683401196e-02  3.4253469578129597e-03  9.0276042048497013e-03  -1.9397868769490241e-02  2.6765699143600212e-02  -3.0645215471700106e-02  3.1018753364903767e-02  -2.8307481412737454e-02  2.3284294222986206e-02  -1.6942769387801489e-02  1.0341750171491314e-02  -4.4481018501900862e-03  9.2828107527760337e-11  2.5902021785230546e-03  -3.2804314372084434e-03  2.3853107514178904e-03  -5.0760142131239556e-04  -8.8389456289493106e-04  4.2083719148248424e-03  -6.3479291123841129e-03  6.5641501101234515e-03  -4.4481016615339130e-03  -9.5123327416423094e-11  6.3528860573031087e-03  -1.3803663601732425e-02  2.1272750122185095e-02  -2.7559842233364745e-02  3.1519789345508267e-02  -3.2237500031415990e-02  2.9176734609542020e-02  -2.2280890663732990e-02  1.2010242906567938e-02  6.9130446189239868e-04  -1.4497230332071153e-02  2.7855047843082084e-02  -3.9178624050071595e-02  4.7051005758653099e-02  -5.0410780664738239e-02  4.8696849502566100e-02  -4.1931758172689078e-02  3.0731740557509751e-02  -1.6241279274537116e-02  -1.4294397839223828e-13  1.6241279274799975e-02  -3.0731740557707710e-02  4.1931758172788137e-02  -4.8696849502549766e-02  5.0410780664604714e-02  -4.7051005758420153e-02  3.9178624049772542e-02  -2.7855047842759929e-02  1.4497230331771171e-02  -6.9130446165636429e-04  -1.2010242906711396e-02  2.2280890663774117e-02  -2.9176734609487730e-02  3.2237500031289640e-02  -3.1519789345344530e-02  2.7559842233199697e-02  -2.1272750122050824e-02  1.3803663601652898e-02  -6.3528860572871527e-03  9.5165484369719513e-11  4.4481016614503479e-03  -6.5641501100219112e-03  6.3479291122914630e-03  -4.2083719147648791e-03  8.8389456288215959e-04  1.3300691052375842e-03  -6.3776246486046771e-03  1.0073620622702657e-02  -1.1562132275368548e-02  1.0341749997935114e-02  -6.3528858843872483e-03  -7.7061343648614907e-11  7.8951784826099304e-03  -1.6203541021222328e-02  2.3646671094200850e-02  -2.8981167276376375e-02  3.1183326472816356e-02  -2.9607924966569797e-02  2.4098134535449244e-02  -1.5030139633454332e-02  3.2848935253136304e-03  9.8505481231838422e-03  -2.2839923533783911e-02  3.4092537342838604e-02  -4.2170120561513209e-02  4.5978041800909739e-02  -4.4914959626641472e-02  3.8960374127461846e-02  -2.8687728773367546e-02  1.5200625226735376e-02  1.5851032666572979e-13  -1.5200625227027770e-02  2.8687728773587520e-02  -3.8960374127574554e-02  4.4914959626627858e-02  -4.5978041800772300e-02  4.2170120561271708e-02  -3.4092537342531273e-02  2.2839923533459830e-02  -9.8505481228939960e-03  -3.2848935255260737e-03  1.5030139633559796e-02  -2.4098134535439821e-02  2.9607924966455829e-02  -3.1183326472628718e-02  2.8981167276155701e-02  -2.3646671093989612e-02  1.6203541021056766e-02  -7.8951784825154765e-03  7.7045230841837097e-11  6.3528858843323131e-03  -1.0341749997829492e-02  1.1562132275242618e-02  -1.0073620622589784e-02  6.3776246485320355e-03  -1.3300691052220766e-03  -1.7915198186355431e-03  8.6273762662535686e-03  -1.3999123717557790e-02  1.6964675239747724e-02  -1.6942769245158442e-02  1.3803663462465155e-02  -7.8951783626374020e-03  -4.3795732061815865e-11  8.7701984242489518e-03  -1.7129351952193325e-02  2.3798935132487563e-02  -2.7691876196471760e-02  2.8072644371186103e-02  -2.4670824313971763e-02  1.7731780518521718e-02  -7.9966077254192414e-03  -3.3867177677025678e-03  1.5009563732924279e-02  -2.5386838036765093e-02  3.3154391701243416e-02  -3.7252881949841679e-02  3.7073020967542572e-02  -3.2542246805820615e-02  2.4140710419194984e-02  -1.2844008030007648e-02  -1.6786462841419636e-13  1.2844008030316325e-02  -2.4140710419427683e-02  3.2542246805940860e-02  -3.7073020967530464e-02  3.7252881949701909e-02  -3.3154391701000346e-02  2.5386838036461534e-02  -1.5009563732613997e-02  3.3867177674390633e-03  7.9966077255907916e-03  -1.7731780518574911e-02  2.4670824313901812e-02  -2.8072644371007684e-02  2.7691876196220735e-02  -2.3798935132210909e-02  1.7129351951937634e-02  -8.7701984240557036e-03  4.3690265763551241e-11  7.8951783626478051e-03  -1.3803663462390765e-02  1.6942769245024483e-02  -1.6964675239591515e-02  1.3999123717418824e-02  -8.6273762661637186e-03  1.7915198186167910e-03  2.1993163339635632e-03  -1.0621800664634055e-02  1.7540797180625938e-02  -2.1973615698415130e-02  2.3284294123034077e-02  -2.1272750028460720e-02  1.6203540946218096e-02  -8.7701983777661776e-03  -6.0349445666662453e-12  8.8877230641542151e-03  -1.6650216986206962e-02  2.2193607479913391e-02  -2.4725073575478859e-02  2.3863842185450800e-02  -1.9695606285514419e-02  1.2762750589339998e-02  -3.9916059603348937e-03  -5.4333693227554634e-03  1.4231262179389541e-02  -2.1200055507674304e-02  2.5381573414224173e-02  -2.6193341868814252e-02  2.3509211446483866e-02  -1.7677614129266904e-02  9.4748854867261270e-03  1.6796130570379197e-13  -9.4748854870355583e-03  1.7677614129498993e-02  -2.3509211446601411e-02  2.6193341868798962e-02  -2.5381573414082804e-02  2.1200055507434451e-02  -1.4231262179098257e-02  5.4333693224685922e-03  3.9916059605614408e-03  -1.2762750589463998e-02  1.9695606285511636e-02  -2.3863842185319735e-02  2.4725073575240283e-02  -2.2193607479607587e-02  1.6650216985884862e-02  -8.8877230638659301e-03  5.8238520024479283e-12  8.7701983778727486e-03  -1.6203540946214370e-02  2.1272750028358982e-02  -2.3284294122865531e-02  2.1973615698222534e-02  -1.7540797180455481e-02  1.0621800664525210e-02  -2.1993163339409380e-03  -2.4800273048447025e-03  1.2002787850452092e-02  -2.0072767508194967e-02  2.5725354321359046e-02  -2.8307481362082422e-02  2.7559842191465952e-02  -2.3646671069311172e-02  1.7129351950188776e-02  -8.8877230877011850e-03  2.4017381655745794e-11  8.4022137802962291e-03  -1.5284076867344006e-02  1.9842492741476363e-02  -2.1607800471534242e-02  2.0498717229037001e-02  -1.6823566007658098e-02  1.1228233216395475e-02  -4.5986132461568246e-03  -2.0684950906346544e-03  7.8078233642348586e-03  -1.1821466379255017e-02  1.3589228230864864e-02  -1.2938256798176643e-02  1.0062500411102253e-02  -5.4895749722286653e-03  -1.6174687662899369e-13  5.4895749725254114e-03  -1.0062500411322015e-02  1.2938256798283485e-02  -1.3589228230842621e-02  1.1821466379111099e-02  -7.8078233639997394e-03  2.0684950903570153e-03  4.5986132464192484e-03  -1.1228233216586125e-02  1.6823566007737288e-02  -2.0498717228983731e-02  2.1607800471351114e-02  -1.9842492741188395e-02  1.5284076866995941e-02  -8.4022137799420089e-03  -2.4322934095882198e-11  8.8877230879159785e-03  -1.7129351950283370e-02  2.3646671069281002e-02  -2.7559842191326945e-02  2.8307481361871029e-02  -2.5725354321124019e-02  2.0072767507990728e-02  -1.2002787850322404e-02  2.4800273048183005e-03  2.5668966672817610e-03  -1.2444400130634850e-02  2.1021627823461311e-02  -2.7420489225627984e-02  3.1018753364513641e-02  -3.1519789355652084e-02  2.8981167300680895e-02  -2.3798935172699195e-02  1.6650217041747531e-02  -8.4022138480337582e-03  3.7200612926230815e-11  7.6518767253065442e-03  -1.3798410959025538e-02  1.7919714781327770e-02  -1.9782501508989660e-02  1.9451626045380598e-02  -1.7261360607787473e-02  1.3751580494652374e-02  -9.5787430366344236e-03  5.4148228308918819e-03  -1.8487779139514757e-03  -6.9551449278325197e-04  2.0134923358414436e-03  -2.1390992661746914e-03  1.3268416192908010e-03  1.4892210119058648e-13  -1.3268416195630699e-03  2.1390992663731460e-03  -2.0134923359312945e-03  6.9551449274909613e-04  1.8487779140992514e-03  -5.4148228311236835e-03  9.5787430369001416e-03  -1.3751580494892376e-02  1.7261360607947990e-02  -1.9451626045422464e-02  1.9782501508896551e-02  -1.7919714781104927e-02  1.3798410958704767e-02  -7.6518767249351850e-03  -3.7566539897233522e-11  8.4022138483379593e-03  -1.6650217041945505e-02  2.3798935172764425e-02  -2.8981167300609820e-02  3.1519789355464595e-02  -3.1018753364252805e-02  2.7420489225348094e-02  -2.1021627823221468e-02  1.2444400130484210e-02  -2.5668966672500824e-03  -2.4107673548767680e-03  1.1706119053969410e-02  -1.9959243697845366e-02  2.6451317490940457e-02  -3.0645215517142985e-02  3.2237500088063233e-02  -3.1183326539729384e-02  2.7691876271468151e-02  -2.2193607559515060e-02  1.5284076946825056e-02  -7.6518767989615169e-03  3.0799657586838027e-11  7.0295360827862538e-03  -1.2918746768715473e-02  1.7317295141201450e-02  -2.0062366702795105e-02  2.1173813254058468e-02  -2.0826914895061409e-02  1.9308020284850198e-02  -1.6960419468117698e-02  1.4128808231759663e-02  -1.1110500730168693e-02  8.1201902656415324e-03  -5.2727598164536114e-03  2.5857473151470528e-03  -1.3318724998611907e-13  -2.5857473149070551e-03  5.2727598162833952e-03  -8.1201902655738609e-03  1.1110500730217866e-02  -1.4128808231915190e-02  1.6960419468347105e-02  -1.9308020285104099e-02  2.0826914895282871e-02  -2.1173813254194849e-02  2.0062366702810062e-02  -1.7317295141082236e-02  1.2918746768471594e-02  -7.0295360824510879e-03  -3.1175364139707343e-11  7.6518767993183096e-03  -1.5284076947107017e-02  2.2193607559678117e-02  -2.7691876271488433e-02  3.1183326539606159e-02  -3.2237500087822356e-02  3.0645215516831133e-02  -2.6451317490616636e-02  1.9959243697570930e-02  -1.1706119053799095e-02  2.4107673548413927e-03  1.9891415453887522e-03  -9.6770353344825186e-03  1.6680032863182259e-02  -2.2508573561755119e-02  2.6765699225928391e-02  -2.9176734702418963e-02  2.9607925064937621e-02  -2.8072644469507472e-02  2.4725073668008777e-02  -1.9842492822573048e-02  1.3798411023486737e-02  -7.0295361261959750e-03  9.5284695864883022e-12  6.8337346502905212e-03  -1.3054228410319536e-02  1.8308302394325234e-02  -2.2324669520515258e-02  2.4923441104611872e-02  -2.6017915015464105e-02  2.5609814677829190e-02  -2.3779663128327709e-02  2.0674195958631725e-02  -1.6492638813516643e-02  1.1473339842946474e-02  -5.8817315857049917e-03  1.1592655829090673e-13  5.8817315854966289e-03  -1.1473339842804756e-02  1.6492638813472359e-02  -2.0674195958696306e-02  2.3779663128491734e-02  -2.5609814678058816e-02  2.6017915015712080e-02  -2.4923441104821392e-02  2.2324669520637209e-02  -1.8308302394325782e-02  1.3054228410188331e-02  -6.8337346500398329e-03  -9.8600172668320534e-12  7.0295361265571253e-03  -1.3798411023816856e-02  1.9842492822817484e-02  -2.4725073668124913e-02  2.8072644469474842e-02  -2.9607925064759507e-02  2.9176734702125062e-02  -2.6765699225570365e-02  2.2508573561393477e-02  -1.6680032862880792e-02  9.6770353342961659e-03  -1.9891415453494325e-03  -1.3119886428569994e-03  6.4042145922144390e-03  -1.1250948065954587e-02  1.5651285628119380e-02  -1.9397868876646355e-02  2.2280890779393003e-02  -2.4098134651212234e-02  2.4670824421773114e-02  -2.3863842278117199e-02  2.1607800543292501e-02  -1.7919714828169266e-02  1.2918746788586472e-02  -6.8337346430958554e-03  -1.6271874501173632e-11  7.1558735430581515e-03  -1.4143100009698798e-02  2.0443814368314370e-02  -2.5557022812080079e-02  2.9045013152857561e-02  -3.0577224660933666e-02  2.9966546437101605e-02  -2.7193613606695394e-02  2.2415846030983753e-02  -1.5959592358224629e-02  8.2956099938715742e-03  -1.0056905898019151e-13  -8.2956099936923704e-03  1.5959592358108742e-02  -2.2415846030959551e-02  2.7193613606774348e-02  -2.9966546437271754e-02  3.0577224661163079e-02  -2.9045013153099514e-02  2.5557022812282122e-02  -2.0443814368429625e-02  1.4143100009695993e-02  -7.1558735429290612e-03  1.6031467973895740e-11  6.8337346434085055e-03  -1.2918746788917065e-02  1.7919714828460623e-02  -2.1607800543490551e-02  2.3863842278181946e-02  -2.4670824421687283e-02  2.4098134650983566e-02  -2.2280890779052931e-02  1.9397868876249391e-02  -1.5651285627727458e-02  1.1250948065633773e-02  -6.4042145920164524e-03  1.3119886428156079e-03  4.2333427318434595e-04  -2.1005262640143769e-03  4.0259450668121474e-03  -6.3284505543681592e-03  9.0276043233651331e-03  -1.2010243030285901e-02  1.5030139751603021e-02  -1.7731780621495490e-02  1.9695606365624244e-02  -2.0498717281167162e-02  1.9782501530936084e-02  -1.7317295133670307e-02  1.3054228376593683e-02  -7.1558734884109524e-03  -3.4537402856397773e-11  7.8456896950744558e-03  -1.5676012629458506e-02  2.2722307603678649e-02  -2.8239218578350777e-02  3.1593483055457110e-02  -3.2343351210866414e-02  3.0298178411987866e-02  -2.5550060904882436e-02  1.8472826575541466e-02  -9.6878008387937965e-03  8.7770977113963348e-14  9.6878008386400098e-03  -1.8472826575445165e-02  2.5550060904873939e-02  -3.0298178412074356e-02  3.2343351211038311e-02  -3.1593483055680459e-02  2.8239218578584638e-02  -2.2722307603872251e-02  1.5676012629569958e-02  -7.8456896950748166e-03  3.4421135900538620e-11  7.1558734886299569e-03  -1.3054228376875013e-02  1.7317295133961998e-02  -1.9782501531182481e-02  2.0498717281319544e-02  -1.9695606365643749e-02  1.7731780621368678e-02  -1.5030139751339294e-02  1.2010243029918322e-02  -9.0276043229464455e-03  6.3284505539615045e-03  -4.0259450664815030e-03  2.1005262638114407e-03  -4.2333427314214490e-04  6.0177094630199440e-04  -2.8700237911806798e-03  4.3785155275695917e-03  -4.6522930885263816e-03  3.4253468410368280e-03  -6.9130434416705771e-04  -3.2848936319076418e-03  7.9966078107330616e-03  -1.2762750646044995e-02  1.6823566031974570e-02  -1.9451626037353877e-02  2.0062366666078173e-02  -1.8308302335520214e-02  1.4143099937345829e-02  -7.8456896184556073e-03  -3.6051915357080760e-11  8.5680093052868146e-03  -1.6888420158308944e-02  2.3967993827250081e-02  -2.8917556138347629e-02  3.1069166571291457e-02  -3.0067260526495537e-02  2.5921265090361748e-02  -1.9012217594573014e-02  1.0051987937336903e-02  -7.7973339122467746e-14  -1.0051987937199941e-02  1.9012217594491183e-02  -2.5921265090360260e-02  3.0067260526583844e-02  -3.1069166571458161e-02  2.8917556138562471e-02  -2.3967993827471820e-02  1.6888420158494555e-02  -8.5680093053968481e-03  3.6062026854622028e-11  7.8456896185521759e-03  -1.4143099937532771e-02  1.8308302335762031e-02  -2.0062366666327179e-02  1.9451626037556864e-02  -1.6823566032085326e-02  1.2762750646031284e-02  -7.9966078105800156e-03  3.2848936316265402e-03  6.9130434454376679e-04  -3.4253468414566150e-03  4.6522930889300691e