<?xml version="1.0"?>
<VTKFile type="UnstructuredGrid"  version="0.1"  >
<UnstructuredGrid>
<Piece  NumberOfPoints="2601" NumberOfCells="5000">
<Points>
<DataArray  type="Float64"  NumberOfComponents="3"  format="ascii">-10 -10 0  -9.6 -10 0  -9.199999999999999 -10 0  -8.800000000000001 -10 0  -8.4 -10 0  -8 -10 0  -7.6 -10 0  -7.2 -10 0  -6.8 -10 0  -6.4 -10 0  -6 -10 0  -5.6 -10 0  -5.2 -10 0  -4.8 -10 0  -4.4 -10 0  -4 -10 0  -3.6 -10 0  -3.2 -10 0  -2.8 -10 0  -2.4 -10 0  -2 -10 0  -1.6 -10 0  -1.199999999999999 -10 0  -0.8000000000000007 -10 0  -0.4000000000000004 -10 0  0 -10 0  0.4000000000000004 -10 0  0.8000000000000007 -10 0  1.199999999999999 -10 0  1.6 -10 0  2 -10 0  2.4 -10 0  2.800000000000001 -10 0  3.199999999999999 -10 0  3.6 -10 0  4 -10 0  4.4 -10 0  4.800000000000001 -10 0  5.199999999999999 -10 0  5.6 -10 0  6 -10 0  6.399999999999999 -10 0  6.800000000000001 -10 0  7.199999999999999 -10 0  7.600000000000001 -10 0  8 -10 0  8.399999999999999 -10 0  8.800000000000001 -10 0  9.199999999999999 -10 0  9.600000000000001 -10 0  10 -10 0  -10 -9.6 0  -9.6 -9.6 0  -9.199999999999999 -9.6 0  -8.800000000000001 -9.6 0  -8.4 -9.6 0  -8 -9.6 0  -7.6 -9.6 0  -7.2 -9.6 0  -6.8 -9.6 0  -6.4 -9.6 0  -6 -9.6 0  -5.6 -9.6 0  -5.2 -9.6 0  -4.8 -9.6 0  -4.4 -9.6 0  -4 -9.6 0  -3.6 -9.6 0  -3.2 -9.6 0  -2.8 -9.6 0  -2.4 -9.6 0  -2 -9.6 0  -1.6 -9.6 0  -1.199999999999999 -9.6 0  -0.8000000000000007 -9.6 0  -0.4000000000000004 -9.6 0  0 -9.6 0  0.4000000000000004 -9.6 0  0.8000000000000007 -9.6 0  1.199999999999999 -9.6 0  1.6 -9.6 0  2 -9.6 0  2.4 -9.6 0  2.800000000000001 -9.6 0  3.199999999999999 -9.6 0  3.6 -9.6 0  4 -9.6 0  4.4 -9.6 0  4.800000000000001 -9.6 0  5.199999999999999 -9.6 0  5.6 -9.6 0  6 -9.6 0  6.399999999999999 -9.6 0  6.800000000000001 -9.6 0  7.199999999999999 -9.6 0  7.600000000000001 -9.6 0  8 -9.6 0  8.399999999999999 -9.6 0  8.800000000000001 -9.6 0  9.199999999999999 -9.6 0  9.600000000000001 -9.6 0  10 -9.6 0  -10 -9.199999999999999 0  -9.6 -9.199999999999999 0  -9.199999999999999 -9.199999999999999 0  -8.800000000000001 -9.199999999999999 0  -8.4 -9.199999999999999 0  -8 -9.199999999999999 0  -7.6 -9.199999999999999 0  -7.2 -9.199999999999999 0  -6.8 -9.199999999999999 0  -6.4 -9.199999999999999 0  -6 -9.199999999999999 0  -5.6 -9.199999999999999 0  -5.2 -9.199999999999999 0  -4.8 -9.199999999999999 0  -4.4 -9.199999999999999 0  -4 -9.199999999999999 0  -3.6 -9.199999999999999 0  -3.2 -9.199999999999999 0  -2.8 -9.199999999999999 0  -2.4 -9.199999999999999 0  -2 -9.199999999999999 0  -1.6 -9.199999999999999 0  -1.199999999999999 -9.199999999999999 0  -0.8000000000000007 -9.199999999999999 0  -0.4000000000000004 -9.199999999999999 0  0 -9.199999999999999 0  0.4000000000000004 -9.199999999999999 0  0.8000000000000007 -9.199999999999999 0  1.199999999999999 -9.199999999999999 0  1.6 -9.199999999999999 0  2 -9.199999999999999 0  2.4 -9.199999999999999 0  2.800000000000001 -9.199999999999999 0  3.199999999999999 -9.199999999999999 0  3.6 -9.199999999999999 0  4 -9.199999999999999 0  4.4 -9.199999999999999 0  4.800000000000001 -9.199999999999999 0  5.199999999999999 -9.199999999999999 0  5.6 -9.199999999999999 0  6 -9.199999999999999 0  6.399999999999999 -9.199999999999999 0  6.800000000000001 -9.199999999999999 0  7.199999999999999 -9.199999999999999 0  7.600000000000001 -9.199999999999999 0  8 -9.199999999999999 0  8.399999999999999 -9.199999999999999 0  8.800000000000001 -9.199999999999999 0  9.199999999999999 -9.199999999999999 0  9.600000000000001 -9.199999999999999 0  10 -9.199999999999999 0  -10 -8.800000000000001 0  -9.6 -8.800000000000001 0  -9.199999999999999 -8.800000000000001 0  -8.800000000000001 -8.800000000000001 0  -8.4 -8.800000000000001 0  -8 -8.800000000000001 0  -7.6 -8.800000000000001 0  -7.2 -8.800000000000001 0  -6.8 -8.800000000000001 0  -6.4 -8.800000000000001 0  -6 -8.800000000000001 0  -5.6 -8.800000000000001 0  -5.2 -8.800000000000001 0  -4.8 -8.800000000000001 0  -4.4 -8.800000000000001 0  -4 -8.800000000000001 0  -3.6 -8.800000000000001 0  -3.2 -8.800000000000001 0  -2.8 -8.800000000000001 0  -2.4 -8.800000000000001 0  -2 -8.800000000000001 0  -1.6 -8.800000000000001 0  -1.199999999999999 -8.800000000000001 0  -0.8000000000000007 -8.800000000000001 0  -0.4000000000000004 -8.800000000000001 0  0 -8.800000000000001 0  0.4000000000000004 -8.800000000000001 0  0.8000000000000007 -8.800000000000001 0  1.199999999999999 -8.800000000000001 0  1.6 -8.800000000000001 0  2 -8.800000000000001 0  2.4 -8.800000000000001 0  2.800000000000001 -8.800000000000001 0  3.199999999999999 -8.800000000000001 0  3.6 -8.800000000000001 0  4 -8.800000000000001 0  4.4 -8.800000000000001 0  4.800000000000001 -8.800000000000001 0  5.199999999999999 -8.800000000000001 0  5.6 -8.800000000000001 0  6 -8.800000000000001 0  6.399999999999999 -8.800000000000001 0  6.800000000000001 -8.800000000000001 0  7.199999999999999 -8.800000000000001 0  7.600000000000001 -8.800000000000001 0  8 -8.800000000000001 0  8.399999999999999 -8.800000000000001 0  8.800000000000001 -8.800000000000001 0  9.199999999999999 -8.800000000000001 0  9.600000000000001 -8.800000000000001 0  10 -8.800000000000001 0  -10 -8.4 0  -9.6 -8.4 0  -9.199999999999999 -8.4 0  -8.800000000000001 -8.4 0  -8.4 -8.4 0  -8 -8.4 0  -7.6 -8.4 0  -7.2 -8.4 0  -6.8 -8.4 0  -6.4 -8.4 0  -6 -8.4 0  -5.6 -8.4 0  -5.2 -8.4 0  -4.8 -8.4 0  -4.4 -8.4 0  -4 -8.4 0  -3.6 -8.4 0  -3.2 -8.4 0  -2.8 -8.4 0  -2.4 -8.4 0  -2 -8.4 0  -1.6 -8.4 0  -1.199999999999999 -8.4 0  -0.8000000000000007 -8.4 0  -0.4000000000000004 -8.4 0  0 -8.4 0  0.4000000000000004 -8.4 0  0.8000000000000007 -8.4 0  1.199999999999999 -8.4 0  1.6 -8.4 0  2 -8.4 0  2.4 -8.4 0  2.800000000000001 -8.4 0  3.199999999999999 -8.4 0  3.6 -8.4 0  4 -8.4 0  4.4 -8.4 0  4.800000000000001 -8.4 0  5.199999999999999 -8.4 0  5.6 -8.4 0  6 -8.4 0  6.399999999999999 -8.4 0  6.800000000000001 -8.4 0  7.199999999999999 -8.4 0  7.600000000000001 -8.4 0  8 -8.4 0  8.399999999999999 -8.4 0  8.800000000000001 -8.4 0  9.199999999999999 -8.4 0  9.600000000000001 -8.4 0  10 -8.4 0  -10 -8 0  -9.6 -8 0  -9.199999999999999 -8 0  -8.800000000000001 -8 0  -8.4 -8 0  -8 -8 0  -7.6 -8 0  -7.2 -8 0  -6.8 -8 0  -6.4 -8 0  -6 -8 0  -5.6 -8 0  -5.2 -8 0  -4.8 -8 0  -4.4 -8 0  -4 -8 0  -3.6 -8 0  -3.2 -8 0  -2.8 -8 0  -2.4 -8 0  -2 -8 0  -1.6 -8 0  -1.199999999999999 -8 0  -0.8000000000000007 -8 0  -0.4000000000000004 -8 0  0 -8 0  0.4000000000000004 -8 0  0.8000000000000007 -8 0  1.199999999999999 -8 0  1.6 -8 0  2 -8 0  2.4 -8 0  2.800000000000001 -8 0  3.199999999999999 -8 0  3.6 -8 0  4 -8 0  4.4 -8 0  4.800000000000001 -8 0  5.199999999999999 -8 0  5.6 -8 0  6 -8 0  6.399999999999999 -8 0  6.800000000000001 -8 0  7.199999999999999 -8 0  7.600000000000001 -8 0  8 -8 0  8.399999999999999 -8 0  8.800000000000001 -8 0  9.199999999999999 -8 0  9.600000000000001 -8 0  10 -8 0  -10 -7.6 0  -9.6 -7.6 0  -9.199999999999999 -7.6 0  -8.800000000000001 -7.6 0  -8.4 -7.6 0  -8 -7.6 0  -7.6 -7.6 0  -7.2 -7.6 0  -6.8 -7.6 0  -6.4 -7.6 0  -6 -7.6 0  -5.6 -7.6 0  -5.2 -7.6 0  -4.8 -7.6 0  -4.4 -7.6 0  -4 -7.6 0  -3.6 -7.6 0  -3.2 -7.6 0  -2.8 -7.6 0  -2.4 -7.6 0  -2 -7.6 0  -1.6 -7.6 0  -1.199999999999999 -7.6 0  -0.8000000000000007 -7.6 0  -0.4000000000000004 -7.6 0  0 -7.6 0  0.4000000000000004 -7.6 0  0.8000000000000007 -7.6 0  1.199999999999999 -7.6 0  1.6 -7.6 0  2 -7.6 0  2.4 -7.6 0  2.800000000000001 -7.6 0  3.199999999999999 -7.6 0  3.6 -7.6 0  4 -7.6 0  4.4 -7.6 0  4.800000000000001 -7.6 0  5.199999999999999 -7.6 0  5.6 -7.6 0  6 -7.6 0  6.399999999999999 -7.6 0  6.800000000000001 -7.6 0  7.199999999999999 -7.6 0  7.600000000000001 -7.6 0  8 -7.6 0  8.399999999999999 -7.6 0  8.800000000000001 -7.6 0  9.199999999999999 -7.6 0  9.600000000000001 -7.6 0  10 -7.6 0  -10 -7.2 0  -9.6 -7.2 0  -9.199999999999999 -7.2 0  -8.800000000000001 -7.2 0  -8.4 -7.2 0  -8 -7.2 0  -7.6 -7.2 0  -7.2 -7.2 0  -6.8 -7.2 0  -6.4 -7.2 0  -6 -7.2 0  -5.6 -7.2 0  -5.2 -7.2 0  -4.8 -7.2 0  -4.4 -7.2 0  -4 -7.2 0  -3.6 -7.2 0  -3.2 -7.2 0  -2.8 -7.2 0  -2.4 -7.2 0  -2 -7.2 0  -1.6 -7.2 0  -1.199999999999999 -7.2 0  -0.8000000000000007 -7.2 0  -0.4000000000000004 -7.2 0  0 -7.2 0  0.4000000000000004 -7.2 0  0.8000000000000007 -7.2 0  1.199999999999999 -7.2 0  1.6 -7.2 0  2 -7.2 0  2.4 -7.2 0  2.800000000000001 -7.2 0  3.199999999999999 -7.2 0  3.6 -7.2 0  4 -7.2 0  4.4 -7.2 0  4.800000000000001 -7.2 0  5.199999999999999 -7.2 0  5.6 -7.2 0  6 -7.2 0  6.399999999999999 -7.2 0  6.800000000000001 -7.2 0  7.199999999999999 -7.2 0  7.600000000000001 -7.2 0  8 -7.2 0  8.399999999999999 -7.2 0  8.800000000000001 -7.2 0  9.199999999999999 -7.2 0  9.600000000000001 -7.2 0  10 -7.2 0  -10 -6.8 0  -9.6 -6.8 0  -9.199999999999999 -6.8 0  -8.800000000000001 -6.8 0  -8.4 -6.8 0  -8 -6.8 0  -7.6 -6.8 0  -7.2 -6.8 0  -6.8 -6.8 0  -6.4 -6.8 0  -6 -6.8 0  -5.6 -6.8 0  -5.2 -6.8 0  -4.8 -6.8 0  -4.4 -6.8 0  -4 -6.8 0  -3.6 -6.8 0  -3.2 -6.8 0  -2.8 -6.8 0  -2.4 -6.8 0  -2 -6.8 0  -1.6 -6.8 0  -1.199999999999999 -6.8 0  -0.8000000000000007 -6.8 0  -0.4000000000000004 -6.8 0  0 -6.8 0  0.4000000000000004 -6.8 0  0.8000000000000007 -6.8 0  1.199999999999999 -6.8 0  1.6 -6.8 0  2 -6.8 0  2.4 -6.8 0  2.800000000000001 -6.8 0  3.199999999999999 -6.8 0  3.6 -6.8 0  4 -6.8 0  4.4 -6.8 0  4.800000000000001 -6.8 0  5.199999999999999 -6.8 0  5.6 -6.8 0  6 -6.8 0  6.399999999999999 -6.8 0  6.800000000000001 -6.8 0  7.199999999999999 -6.8 0  7.600000000000001 -6.8 0  8 -6.8 0  8.399999999999999 -6.8 0  8.800000000000001 -6.8 0  9.199999999999999 -6.8 0  9.600000000000001 -6.8 0  10 -6.8 0  -10 -6.4 0  -9.6 -6.4 0  -9.199999999999999 -6.4 0  -8.800000000000001 -6.4 0  -8.4 -6.4 0  -8 -6.4 0  -7.6 -6.4 0  -7.2 -6.4 0  -6.8 -6.4 0  -6.4 -6.4 0  -6 -6.4 0  -5.6 -6.4 0  -5.2 -6.4 0  -4.8 -6.4 0  -4.4 -6.4 0  -4 -6.4 0  -3.6 -6.4 0  -3.2 -6.4 0  -2.8 -6.4 0  -2.4 -6.4 0  -2 -6.4 0  -1.6 -6.4 0  -1.199999999999999 -6.4 0  -0.8000000000000007 -6.4 0  -0.4000000000000004 -6.4 0  0 -6.4 0
[...]
<PointData  Scalars="f_181"> 
<DataArray  type="Float64"  Name="f_181"  format="ascii">2.3829438354878408e-11  1.5677911184816894e-06  -1.8502049989321744e-05  6.1498313631680210e-05  -1.3864293112180999e-04  2.5458963092844192e-04  -4.1006619468945466e-04  6.0175874048006624e-04  -8.2258489952129676e-04  1.0623298392830795e-03  -1.3085842540345733e-03  1.5478944547132562e-03  -1.7670143261173474e-03  1.9541391354727690e-03  -2.1000029115491956e-03  2.1987342011576937e-03  -2.2483881938926381e-03  2.2511042610868235e-03  -2.2128739003952932e-03  2.1429414629941450e-03  -2.0528952777458241e-03  1.9555364935731610e-03  -1.8636342864179675e-03  1.7886869736259015e-03  -1.7398080006117925e-03  1.7228437676911632e-03  -1.7398080006108920e-03  1.7886869736241022e-03  -1.8636342864153928e-03  1.9555364935698329e-03  -2.0528952777418680e-03  2.1429414629899057e-03  -2.2128739003904308e-03  2.2511042610820209e-03  -2.2483881938877180e-03  2.1987342011533543e-03  -2.1000029115452001e-03  1.9541391354695606e-03  -1.7670143261148622e-03  1.5478944547114310e-03  -1.3085842540333720e-03  1.0623298392824832e-03  -8.2258489952105412e-04  6.0175874048022041e-04  -4.1006619468986276e-04  2.5458963092898673e-04  -1.3864293112229227e-04  6.1498313632268498e-05  -1.8502049989797952e-05  1.5677911187118152e-06  2.3829331047232787e-11  -1.5681199706957167e-06  8.1381826665268020e-10  7.7631776495494425e-05  -2.8427664709587122e-04  6.5996980774351947e-04  -1.2277618787017745e-03  1.9912769558994539e-03  -2.9341399398813105e-03  4.0213281655585593e-03  -5.2023184488789306e-03  6.4157283131782861e-03  -7.5950067154878205e-03  8.6746288297382661e-03  -9.5962010314671834e-03  1.0313890814220447e-02  -1.0798661127415655e-02  1.1040903343211379e-02  -1.1051216724972637e-02  1.0859260132931654e-02  -1.0510786691753775e-02  1.0063146504009031e-02  -9.5796894874895996e-03  9.1236059339375453e-03  -8.7517963040498609e-03  8.5093589135800361e-03  -8.4252248026964269e-03  8.5093589135752656e-03  -8.7517963040409808e-03  9.1236059339246944e-03  -9.5796894874732724e-03  1.0063146503989789e-02  -1.0510786691732315e-02  1.0859260132908641e-02  -1.1051216724948706e-02  1.1040903343187842e-02  -1.0798661127393428e-02  1.0313890814201036e-02  -9.5962010314511719e-03  8.6746288297260398e-03  -7.5950067154790333e-03  6.4157283131726240e-03  -5.2023184488761819e-03  4.0213281655579114e-03  -2.9341399398822403e-03  1.9912769559016783e-03  -1.2277618787044306e-03  6.5996980774621285e-04  -2.8427664709835632e-04  7.7631776497440798e-05  8.1381702203223248e-10  -1.5681199705742029e-06  1.8502627612201430e-05  -7.7634621654405574e-05  2.4837687676108163e-09  3.0962103159899712e-04  -9.2329831292236187e-04  1.8826163511172955e-03  -3.1943063533717854e-03  4.8292154632453375e-03  -6.7247307640992821e-03  8.7904243469136452e-03  -1.0916379015343801e-02  1.2983396859772145e-02  -1.4874112158965678e-02  1.6483943214353071e-02  -1.7730833124654944e-02  1.8562845689458207e-02  -1.8962888437999641e-02  1.8950110459863220e-02  -1.8577841806778142e-02  1.7928273111613151e-02  -1.7104386877342205e-02  1.6219915600942995e-02  -1.5388291203016911e-02  1.4711646963267809e-02  -1.4270928030752217e-02  1.4118060078843338e-02  -1.4270928030744213e-02  1.4711646963252277e-02  -1.5388291202994618e-02  1.6219915600914691e-02  -1.7104386877308773e-02  1.7928273111575774e-02  -1.8577841806737730e-02  1.8950110459821552e-02  -1.8962888437958462e-02  1.8562845689420043e-02  -1.7730833124621516e-02  1.6483943214325995e-02  -1.4874112158945260e-02  1.2983396859757999e-02  -1.0916379015335192e-02  8.7904243469098271e-03  -6.7247307640991329e-03  4.8292154632476655e-03  -3.1943063533760212e-03  1.8826163511225186e-03  -9.2329831292767186e-04  3.0962103160387186e-04  2.4837650276831101e-09  -7.7634621652268612e-05  1.8502627611668179e-05  -6.1499110580855781e-05  2.8428057083929194e-04  -3.0962787350513317e-04  4.7022352429776149e-09  7.4879265999794244e-04  -1.9971154068937516e-03  3.7551580107102319e-03  -5.9814768324974281e-03  8.5864756759932957e-03  -1.1440525631083640e-02  1.4385941685545042e-02  -1.7251668339279175e-02  1.9869266371332111e-02  -2.2088667950861483e-02  2.3792189443276855e-02  -2.4905458415303696e-02  2.5404207443986016e-02  -2.5316283963914332e-02  2.4718684474395982e-02  -2.3729898909053571e-02  2.2498301014149891e-02  -2.1187699992079114e-02  1.9961441025892264e-02  -1.8966581467680446e-02  1.8319662090696784e-02  -1.8095439581402365e-02  1.8319662090685487e-02  -1.8966581467658779e-02  1.9961441025861167e-02  -2.1187699992039729e-02  2.2498301014103633e-02  -2.3729898909001894e-02  2.4718684474340693e-02  -2.5316283963857475e-02  2.5404207443930502e-02  -2.4905458415252574e-02  2.3792189443232699e-02  -2.2088667950825890e-02  1.9869266371305962e-02  -1.7251668339261655e-02  1.4385941685535496e-02  -1.1440525631080698e-02  8.5864756759951970e-03  -5.9814768325027684e-03  3.7551580107178383e-03  -1.9971154069025102e-03  7.4879266000671255e-04  4.7022272348400369e-09  -3.0962787349890459e-04  2.8428057083573560e-04  -6.1499110580200258e-05  1.3864391024721528e-04  -6.5997462690850636e-04  9.2330670161531829e-04  -7.4880415750405108e-04  6.9991462002427343e-09  1.4024781664069366e-03  -3.4727725253964367e-03  6.1577943424942711e-03  -9.3417906789060243e-03  1.2856898748234131e-02  -1.6498725309227164e-02  2.0045450778487382e-02  -2.3278626357251135e-02  2.6003669884755342e-02  -2.8068094962114088e-02  2.9375725367963301e-02  -2.9895532036376116e-02  2.9664245911161440e-02  -2.8782497296972843e-02  2.7404853565018466e-02  -2.5724712611002308e-02  2.3955503103037325e-02  -2.2309996916441747e-02  2.0979720218112799e-02  -2.0116440056637708e-02  1.9817503958030207e-02  -2.0116440056623851e-02  2.0979720218085782e-02  -2.2309996916402904e-02  2.3955503102988628e-02  -2.5724712610945426e-02  2.7404853564955305e-02  -2.8782497296905647e-02  2.9664245911093203e-02  -2.9895532036310072e-02  2.9375725367903349e-02  -2.8068094962063105e-02  2.6003669884715336e-02  -2.3278626357222734e-02  2.0045450778470079e-02  -1.6498725309219586e-02  1.2856898748234997e-02  -9.3417906789127515e-03  6.1577943425052042e-03  -3.4727725254096991e-03  1.4024781664210154e-03  6.9991320662292806e-09  -7.4880415749166993e-04  9.2330670160593170e-04  -6.5997462690301943e-04  1.3864391024598900e-04  -2.5459074961859974e-04  1.2277673825956197e-03  -1.8826259096825948e-03  1.9971284574117312e-03  -1.4024939666054210e-03  8.8486649779430961e-09  2.2288954794735154e-03  -5.2202677979747581e-03  8.8331952594336832e-03  -1.2862763283020030e-02  1.7059175407948279e-02  -2.1151200022181203e-02  2.4871695496828994e-02  -2.7982765681211580e-02  3.0298133104421098e-02  -3.1700584189863608e-02  3.2152813695960833e-02  -3.1700629057756037e-02  3.0468208518588336e-02  -2.8645869531651352e-02  2.6471522681811094e-02  -2.4207592338322818e-02  2.2115620236844800e-02  -2.0430990452914344e-02  1.9340202435529530e-02  -1.8962874051205458e-02  1.9340202435513265e-02  -2.0430990452882720e-02  2.2115620236799843e-02  -2.4207592338266505e-02  2.6471522681745685e-02  -2.8645869531579389e-02  3.0468208518512726e-02  -3.1700629057680237e-02  3.2152813695888828e-02  -3.1700584189799298e-02  3.0298133104367849e-02  -2.7982765681171591e-02  2.4871695496802949e-02  -2.1151200022168179e-02  1.7059175407946846e-02  -1.2862763283027979e-02  8.8331952594485827e-03  -5.2202677979939242e-03  2.2288954794949427e-03  8.8486429142207525e-09  -1.4024939665842979e-03  1.9971284573935362e-03  -1.8826259096690018e-03  1.2277673825875515e-03  -2.5459074961690215e-04  4.1006740865016998e-04  -1.9912829254784548e-03  3.1943166900849696e-03  -3.7551720533896258e-03  3.4727894023668590e-03  -2.2289141903772034e-03  9.7547109453345657e-09  3.1399306972684513e-03  -7.0259449783247052e-03  1.1417408038850956e-02  -1.6020616205031923e-02  2.0516483784781228e-02  -2.4590695513052228e-02  2.7963422510312683e-02  -3.0415751241118696e-02  3.1810290370679659e-02  -3.2103979151956036e-02  3.1351869404724793e-02  -2.9701519434168433e-02  2.7378539230356037e-02  -2.4664675510682767e-02  2.1870541103427808e-02  -1.9305607103945906e-02  1.7248338836520737e-02  -1.5919342719475631e-02  1.5460101996822344e-02  -1.5919342719457576e-02  1.7248338836485567e-02  -1.9305607103895596e-02  2.1870541103365577e-02  -2.4664675510611130e-02  2.7378539230278217e-02  -2.9701519434088133e-02  3.1351869404645960e-02  -3.2103979151882463e-02  3.1810290370616043e-02  -3.0415751241068170e-02  2.7963422510277572e-02  -2.4590695513032747e-02  2.0516483784776472e-02  -1.6020616205039865e-02  1.1417408038869550e-02  -7.0259449783505751e-03  3.1399306972988428e-03  9.7546786987124690e-09  -2.2289141903448985e-03  3.4727894023367590e-03  -3.7551720533643461e-03  3.1943166900661748e-03  -1.9912829254674718e-03  4.1006740864797198e-04  -6.0176000772864803e-04  2.9341461675527780e-03  -4.8292262071304073e-03  5.9814913368217452e-03  -6.1578116113922580e-03  5.2202866895436698e-03  -3.1399500311802293e-03  9.3341733174054898e-09  4.0116896001906677e-03  -8.6202539646589183e-03  1.3489703235058523e-02  -1.8254806613842964e-02  2.2555744323419721e-02  -2.6072267336209928e-02  2.8554078201716217e-02  -2.9844518271870853e-02  2.9895289026989371e-02  -2.8770795705684537e-02  2.6641697448754328e-02  -2.3768284078687193e-02  2.0475276022072431e-02  -1.7120467024524012e-02  1.4060220198325432e-02  -1.1615129866063370e-02  1.0039145639543461e-02  -9.4951227407783310e-03  1.0039145639524308e-02  -1.1615129866026089e-02  1.4060220198272451e-02  -1.7120467024458144e-02  2.0475276021997252e-02  -2.3768284078606934e-02  2.6641697448673306e-02  -2.8770795705606863e-02  2.9895289026919718e-02  -2.9844518271813180e-02  2.8554078201673737e-02  -2.6072267336184174e-02  2.2555744323411089e-02  -1.8254806613849848e-02  1.3489703235079200e-02  -8.6202539646908459e-03  4.0116896002305533e-03  9.3341293678999718e-09  -3.1399500311350159e-03  5.2202866894997813e-03  -6.1578116113524513e-03  5.9814913367886588e-03  -4.8292262071063068e-03  2.9341461675387232e-03  -6.0176000772574378e-04  8.2258618412386225e-04  -4.0213344736847638e-03  6.7247415981301420e-03  -8.5864901895390464e-03  9.3418077572966756e-03  -8.8332136256319780e-03  7.0259633141012299e-03  -4.0117066709347308e-03  7.3855951860951046e-09  4.7014633494908151e-03  -9.7161591229094381e-03  1.4634511850191436e-02  -1.9052966320564944e-02  2.2612450112880576e-02  -2.5032587396391821e-02  2.6138373600127947e-02  -2.5876751517043474e-02  2.4321498653599047e-02  -2.1665957509866045e-02  1.8204307297503081e-02  -1.4303175376634322e-02  1.0366313856961578e-02  -6.7957323704022276e-03  3.9530180989019821e-03  -2.1245560901397660e-03  1.4939884484963023e-03  -2.1245560901201987e-03  3.9530180988641937e-03  -6.7957323703483766e-03  1.0366313856895093e-02  -1.4303175376559204e-02  1.8204307297424272e-02  -2.1665957509788242e-02  2.4321498653526966e-02  -2.5876751516981638e-02  2.6138373600080523e-02  -2.5032587396361172e-02  2.2612450112868030e-02  -1.9052966320570085e-02  1.4634511850212714e-02  -9.7161591229447276e-03  4.7014633495376899e-03  7.3855408051777254e-09  -4.0117066708768388e-03  7.0259633140432112e-03  -8.8332136255768953e-03  9.3418077572476228e-03  -8.5864901894991807e-03  6.7247415981011270e-03  -4.0213344736680836e-03  8.2258618412061767e-04  -1.0623311144724876e-03  5.2023247051983098e-03  -8.7904350356778106e-03  1.1440539819311606e-02  -1.2856915207839560e-02  1.2862780608171139e-02  -1.1417424780235531e-02  8.6202687677690119e-03  -4.7014750836591795e-03  3.9329020491280364e-09  5.0687778411298099e-03  -1.0052826609406675e-02  1.4506677702280289e-02  -1.8034075688462662e-02  2.0325887841262762e-02  -2.1189662160416050e-02  2.0567993282704360e-02  -1.8543933853331428e-02  1.5332932332678493e-02  -1.1262071432567111e-02  6.7386002837799422e-03  -2.2107810364435268e-03  -1.8751917464294599e-03  5.1180636279392578e-03  -7.2000695029303006e-03  7.9174592145027194e-03  -7.2000695029495942e-03  5.1180636279767287e-03  -1.8751917464821806e-03  -2.2107810363791872e-03  6.7386002837082947e-03  -1.1262071432493503e-02  1.5332932332608068e-02  -1.8543933853268860e-02  2.0567993282654535e-02  -2.1189662160382237e-02  2.0325887841247080e-02  -1.8034075688465479e-02  1.4506677702301258e-02  -1.0052826609443394e-02  5.0687778411802982e-03  3.9328408945006536e-09  -4.7014750835915184e-03  8.6202687676989968e-03  -1.1417424780166795e-02  1.2862780608106979e-02  -1.2856915207783391e-02  1.1440539819266158e-02  -8.7904350356452395e-03  5.2023247051796702e-03  -1.0623311144687556e-03  1.3085855044050743e-03  -6.4157344416684347e-03  1.0916389424525552e-02  -1.4385955359814387e-02  1.6498740912349989e-02  -1.7059191411409391e-02  1.6020631034867047e-02  -1.3489715423078205e-02  9.7161674477949985e-03  -5.0687814458604905e-03  -7.6283108060929038e-10  4.9975418268728656e-03  -9.4383179821783351e-03  1.2890544312005658e-02  -1.5017640765935829e-02  1.5610558766378221e-02  -1.4607865476455414e-02  1.2101657881010738e-02  -8.3287389539181533e-03  3.6479027994397897e-03  1.4944910177677199e-03  -6.6073496787915032e-03  1.1201974675426342e-02  -1.4838961262999870e-02  1.7170368218704317e-02  -1.7973110292980814e-02  1.7170368218722816e-02  -1.4838961263035006e-02  1.1201974675475849e-02  -6.6073496788509939e-03  1.4944910178326762e-03  3.6479027993746478e-03  -8.3287389538580503e-03  1.2101657880960705e-02  -1.4607865476419804e-02  1.5610558766360281e-02  -1.5017640765936249e-02  1.2890544312024983e-02  -9.4383179822151771e-03  4.9975418269250583e-03  -7.6289573262576256e-10  -5.0687814457868394e-03  9.7161674477167087e-03  -1.3489715422999385e-02  1.6020631034791306e-02  -1.7059191411339762e-02  1.6498740912290016e-02  -1.4385955359766308e-02  1.0916389424490979e-02  -6.4157344416487039e-03  1.3085855044010859e-03  -1.5478956772856359e-03  7.5950127016327570e-03  -1.2983406965594507e-02  1.7251681470417436e-02  -2.0045465495636124e-02  2.1151214679934142e-02  -2.0516496690464233e-02  1.8254816191089592e-02  -1.4634516791556529e-02  1.0052826003361215e-02  -4.9975352469881088e-03  -6.2261238341417255e-09  4.4160709310000030e-03  -7.7849931359652872e-03  9.7440271310624948e-03  -1.0068317461440299e-02  8.6926239416910238e-03  -5.7177156391048705e-03  1.4008195932086586e-03  3.8689594229497329e-03  -9.6078892053837565e-03  1.5283955417586637e-02  -2.0367853792208682e-02  2.4383735064828202e-02  -2.6954832152770256e-02  2.7839590265642221e-02  -2.6954832152786445e-02  2.4383735064859746e-02  -2.0367853792252397e-02  1.5283955417639026e-02  -9.6078892054399928e-03  3.8689594230044812e-03  1.4008195931607466e-03  -5.7177156390684821e-03  8.6926239416705714e-03  -1.0068317461438074e-02  9.7440271310791741e-03  -7.7849931360002081e-03  4.4160709310515356e-03  -6.2261890329048193e-09  -4.9975352469125260e-03  1.0052826003278935e-02  -1.4634516791471925e-02  1.8254816191006856e-02  -2.0516496690386219e-02  2.1151214679864014e-02  -2.0045465495576443e-02  1.7251681470369953e-02  -1.2983406965560624e-02  7.5950127016135762e-03  -1.5478956772816462e-03  1.7670155301717340e-03  -8.6746347197030442e-03  1.4874122046700687e-02  -1.9869279087470250e-02  2.3278640364291312e-02  -2.4871709037937652e-02  2.4590706782286840e-02  -2.2555751641029107e-02  1.9052968296531938e-02  -1.4506673372402331e-02  9.4383069036102288e-03  -4.4160532280817320e-03  -1.1822023339594458e-08  3.3119811963092599e-03  -5.1321942622091204e-03  5.2207159932613567e-03  -3.5086192506773493e-03  1.0483444794665716e-04  4.7140917661444128e-03  -1.0530346628888569e-02  1.6824781740844525e-02  -2.3026591867427726e-02  2.8567974263102786e-02  -3.2938522578030670e-02  3.5734134794865105e-02  -3.6695741120918141e-02  3.5734134794878636e-02  -3.2938522578056809e-02  2.8567974263139440e-02  -2.3026591867471261e-02  1.6824781740890454e-02  -1.0530346628931469e-02  4.7140917661793102e-03  1.0483444792443265e-04  -3.5086192506715401e-03  5.2207159932738615e-03  -5.1321942622400869e-03  3.3119811963575178e-03  -1.1822086166528437e-08  -4.4160532280075699e-03  9.4383069035284956e-03  -1.4506673372316977e-02  1.9052968296447235e-02  -2.2555751640948290e-02  2.4590706782212729e-02  -2.4871709037872298e-02  2.3278640364236495e-02  -1.9869279087427381e-02  1.4874122046670225e-02  -8.6746347196857282e-03  1.7670155301682425e-03  -1.9541403411683866e-03  9.5962069252641061e-03  -1.6483953066053620e-02  2.2088680519764353e-02  -2.6003683539884682e-02  2.7982778559506909e-02  -2.7963432697590853e-02  2.6072273053518089e-02  -2.2612449890347452e-02  1.8034068509944708e-02  -1.2890529716633950e-02  7.7849712668296321e-03  -3.3119527915895985e-03  -1.6836312733541652e-08  1.7395916544728645e-03  -1.6524328321892757e-03  -3.3404085836947236e-04  4.1033732859112179e-03  -9.3609618723108565e-03  1.5662074926686462e-02  -2.2454307181159254e-02  2.9130399357986923e-02  -3.5086352700666922e-02  3.9779261052552715e-02  -4.2779310059548888e-02  4.3810952818085967e-02  -4.2779310059559192e-02  3.9779261052573019e-02  -3.5086352700695107e-02  2.9130399358020261e-02  -2.2454307181193640e-02  1.5662074926717010e-02  -9.3609618723324624e-03  4.1033732859204015e-03  -3.3404085836261576e-04  -1.6524328322135890e-03  1.7395916545144081e-03  -1.6836369456117966e-08  -3.3119527915205457e-03  7.7849712667524152e-03  -1.2890529716552291e-02  1.8034068509862923e-02  -2.2612449890269226e-02  2.6072273053446341e-02  -2.7963432697527324e-02  2.7982778559452828e-02  -2.6003683539840523e-02  2.2088680519730574e-02  -1.6483953066030236e-02  9.5962069252510124e-03  -1.9541403411656492e-03  2.1000041474639767e-03  -1.0313896853537324e-02  1.7730843197306612e-02  -2.3792202240885608e-02  2.8068108764895853e-02  -3.0298145948158935e-02  3.0415761108169421e-02  -2.8554083217708484e-02  2.5032586013721773e-02  -2.0325878991763732e-02  1.5017623968050075e-02  -9.7440025412115772e-03  5.1321626654110214e-03  -1.7395543950844653e-03  -2.0570394362547384e-08  -1.8153457408363627e-04  2.3604875037414089e-03  -6.4135938623218697e-03  1.2029594534502017e-02  -1.8738790819315513e-02  2.5957859914599705e-02  -3.3045610165192731e-02  3.9364325351512977e-02  -4.4340810701201133e-02  4.7521281799848561e-02  -4.8614828423068336e-02  4.7521281799855791e-02  -4.4340810701214962e-02  3.9364325351532475e-02  -3.3045610165215476e-02  2.5957859914622444e-02  -1.8738790819333866e-02  1.2029594534512012e-02  -6.4135938623199650e-03  2.3604875037249516e-03  -1.8153457405148000e-04  -2.0570441482032957e-08  -1.7395543950249259e-03  5.1321626653424964e-03  -9.7440025411381116e-03  1.5017623967975884e-02  -2.0325878991692838e-02  2.5032586013657456e-02  -2.8554083217652824e-02  3.0415761108123624e-02  -3.0298145948122430e-02  2.8068108764868174e-02  -2.3792202240865565e-02  1.7730843197293379e-02  -1.0313896853529880e-02  2.1000041474625222e-03  -2.1987355009877737e-03  1.0798667479279069e-02  -1.8562856285661136e-02  2.4905471883531614e-02  -2.9375739904375364e-02  3.1700597734210502e-02  -3.1810300806627397e-02  2.9844523633292073e-02  -2.6138372263549186e-02  2.1189653005134604e-02  -1.5610541286862348e-02  1.0068291821206953e-02  -5.2206830150378974e-03  1.6523939252809435e-03  1.8157754227280970e-04  -2.2437992928477521e-08  -2.2770807644041818e-03  6.5205084358572439e-03  -1.2403849669126365e-02  1.9434523734349039e-02  -2.7000781133108134e-02  3.4430177964848957e-02  -4.1053911925858250e-02  4.6270845497139348e-02  -4.9605071760433411e-02  5.0751497943615824e-02  -4.9605071760437408e-02  4.6270845497147127e-02  -4.1053911925868984e-02  3.4430177964861523e-02  -2.7000781133119777e-02  1.9434523734356439e-02  -1.2403849669126304e-02  6.5205084358467627e-03  -2.2770807643811820e-03  -2.2438029152181653e-08  1.8157754232052750e-04  1.6523939252243546e-03  -5.2206830149761621e-03  1.0068291821144500e-02  -1.5610541286803007e-02  2.1189653005082160e-02  -2.6138372263506026e-02  2.9844523633259401e-02  -3.1810300806605046e-02  3.1700597734196923e-02  -2.9375739904368436e-02  2.4905471883528946e-02  