<?xml version="1.0"?>
<VTKFile type="UnstructuredGrid"  version="0.1"  >
<UnstructuredGrid>
<Piece  NumberOfPoints="2601" NumberOfCells="5000">
<Points>
<DataArray  type="Float64"  NumberOfComponents="3"  format="ascii">-10 -10 0  -9.6 -10 0  -9.199999999999999 -10 0  -8.800000000000001 -10 0  -8.4 -10 0  -8 -10 0  -7.6 -10 0  -7.2 -10 0  -6.8 -10 0  -6.4 -10 0  -6 -10 0  -5.6 -10 0  -5.2 -10 0  -4.8 -10 0  -4.4 -10 0  -4 -10 0  -3.6 -10 0  -3.2 -10 0  -2.8 -10 0  -2.4 -10 0  -2 -10 0  -1.6 -10 0  -1.199999999999999 -10 0  -0.8000000000000007 -10 0  -0.4000000000000004 -10 0  0 -10 0  0.4000000000000004 -10 0  0.8000000000000007 -10 0  1.199999999999999 -10 0  1.6 -10 0  2 -10 0  2.4 -10 0  2.800000000000001 -10 0  3.199999999999999 -10 0  3.6 -10 0  4 -10 0  4.4 -10 0  4.800000000000001 -10 0  5.199999999999999 -10 0  5.6 -10 0  6 -10 0  6.399999999999999 -10 0  6.800000000000001 -10 0  7.199999999999999 -10 0  7.600000000000001 -10 0  8 -10 0  8.399999999999999 -10 0  8.800000000000001 -10 0  9.199999999999999 -10 0  9.600000000000001 -10 0  10 -10 0  -10 -9.6 0  -9.6 -9.6 0  -9.199999999999999 -9.6 0  -8.800000000000001 -9.6 0  -8.4 -9.6 0  -8 -9.6 0  -7.6 -9.6 0  -7.2 -9.6 0  -6.8 -9.6 0  -6.4 -9.6 0  -6 -9.6 0  -5.6 -9.6 0  -5.2 -9.6 0  -4.8 -9.6 0  -4.4 -9.6 0  -4 -9.6 0  -3.6 -9.6 0  -3.2 -9.6 0  -2.8 -9.6 0  -2.4 -9.6 0  -2 -9.6 0  -1.6 -9.6 0  -1.199999999999999 -9.6 0  -0.8000000000000007 -9.6 0  -0.4000000000000004 -9.6 0  0 -9.6 0  0.4000000000000004 -9.6 0  0.8000000000000007 -9.6 0  1.199999999999999 -9.6 0  1.6 -9.6 0  2 -9.6 0  2.4 -9.6 0  2.800000000000001 -9.6 0  3.199999999999999 -9.6 0  3.6 -9.6 0  4 -9.6 0  4.4 -9.6 0  4.800000000000001 -9.6 0  5.199999999999999 -9.6 0  5.6 -9.6 0  6 -9.6 0  6.399999999999999 -9.6 0  6.800000000000001 -9.6 0  7.199999999999999 -9.6 0  7.600000000000001 -9.6 0  8 -9.6 0  8.399999999999999 -9.6 0  8.800000000000001 -9.6 0  9.199999999999999 -9.6 0  9.600000000000001 -9.6 0  10 -9.6 0  -10 -9.199999999999999 0  -9.6 -9.199999999999999 0  -9.199999999999999 -9.199999999999999 0  -8.800000000000001 -9.199999999999999 0  -8.4 -9.199999999999999 0  -8 -9.199999999999999 0  -7.6 -9.199999999999999 0  -7.2 -9.199999999999999 0  -6.8 -9.199999999999999 0  -6.4 -9.199999999999999 0  -6 -9.199999999999999 0  -5.6 -9.199999999999999 0  -5.2 -9.199999999999999 0  -4.8 -9.199999999999999 0  -4.4 -9.199999999999999 0  -4 -9.199999999999999 0  -3.6 -9.199999999999999 0  -3.2 -9.199999999999999 0  -2.8 -9.199999999999999 0  -2.4 -9.199999999999999 0  -2 -9.199999999999999 0  -1.6 -9.199999999999999 0  -1.199999999999999 -9.199999999999999 0  -0.8000000000000007 -9.199999999999999 0  -0.4000000000000004 -9.199999999999999 0  0 -9.199999999999999 0  0.4000000000000004 -9.199999999999999 0  0.8000000000000007 -9.199999999999999 0  1.199999999999999 -9.199999999999999 0  1.6 -9.199999999999999 0  2 -9.199999999999999 0  2.4 -9.199999999999999 0  2.800000000000001 -9.199999999999999 0  3.199999999999999 -9.199999999999999 0  3.6 -9.199999999999999 0  4 -9.199999999999999 0  4.4 -9.199999999999999 0  4.800000000000001 -9.199999999999999 0  5.199999999999999 -9.199999999999999 0  5.6 -9.199999999999999 0  6 -9.199999999999999 0  6.399999999999999 -9.199999999999999 0  6.800000000000001 -9.199999999999999 0  7.199999999999999 -9.199999999999999 0  7.600000000000001 -9.199999999999999 0  8 -9.199999999999999 0  8.399999999999999 -9.199999999999999 0  8.800000000000001 -9.199999999999999 0  9.199999999999999 -9.199999999999999 0  9.600000000000001 -9.199999999999999 0  10 -9.199999999999999 0  -10 -8.800000000000001 0  -9.6 -8.800000000000001 0  -9.199999999999999 -8.800000000000001 0  -8.800000000000001 -8.800000000000001 0  -8.4 -8.800000000000001 0  -8 -8.800000000000001 0  -7.6 -8.800000000000001 0  -7.2 -8.800000000000001 0  -6.8 -8.800000000000001 0  -6.4 -8.800000000000001 0  -6 -8.800000000000001 0  -5.6 -8.800000000000001 0  -5.2 -8.800000000000001 0  -4.8 -8.800000000000001 0  -4.4 -8.800000000000001 0  -4 -8.800000000000001 0  -3.6 -8.800000000000001 0  -3.2 -8.800000000000001 0  -2.8 -8.800000000000001 0  -2.4 -8.800000000000001 0  -2 -8.800000000000001 0  -1.6 -8.800000000000001 0  -1.199999999999999 -8.800000000000001 0  -0.8000000000000007 -8.800000000000001 0  -0.4000000000000004 -8.800000000000001 0  0 -8.800000000000001 0  0.4000000000000004 -8.800000000000001 0  0.8000000000000007 -8.800000000000001 0  1.199999999999999 -8.800000000000001 0  1.6 -8.800000000000001 0  2 -8.800000000000001 0  2.4 -8.800000000000001 0  2.800000000000001 -8.800000000000001 0  3.199999999999999 -8.800000000000001 0  3.6 -8.800000000000001 0  4 -8.800000000000001 0  4.4 -8.800000000000001 0  4.800000000000001 -8.800000000000001 0  5.199999999999999 -8.800000000000001 0  5.6 -8.800000000000001 0  6 -8.800000000000001 0  6.399999999999999 -8.800000000000001 0  6.800000000000001 -8.800000000000001 0  7.199999999999999 -8.800000000000001 0  7.600000000000001 -8.800000000000001 0  8 -8.800000000000001 0  8.399999999999999 -8.800000000000001 0  8.800000000000001 -8.800000000000001 0  9.199999999999999 -8.800000000000001 0  9.600000000000001 -8.800000000000001 0  10 -8.800000000000001 0  -10 -8.4 0  -9.6 -8.4 0  -9.199999999999999 -8.4 0  -8.800000000000001 -8.4 0  -8.4 -8.4 0  -8 -8.4 0  -7.6 -8.4 0  -7.2 -8.4 0  -6.8 -8.4 0  -6.4 -8.4 0  -6 -8.4 0  -5.6 -8.4 0  -5.2 -8.4 0  -4.8 -8.4 0  -4.4 -8.4 0  -4 -8.4 0  -3.6 -8.4 0  -3.2 -8.4 0  -2.8 -8.4 0  -2.4 -8.4 0  -2 -8.4 0  -1.6 -8.4 0  -1.199999999999999 -8.4 0  -0.8000000000000007 -8.4 0  -0.4000000000000004 -8.4 0  0 -8.4 0  0.4000000000000004 -8.4 0  0.8000000000000007 -8.4 0  1.199999999999999 -8.4 0  1.6 -8.4 0  2 -8.4 0  2.4 -8.4 0  2.800000000000001 -8.4 0  3.199999999999999 -8.4 0  3.6 -8.4 0  4 -8.4 0  4.4 -8.4 0  4.800000000000001 -8.4 0  5.199999999999999 -8.4 0  5.6 -8.4 0  6 -8.4 0  6.399999999999999 -8.4 0  6.800000000000001 -8.4 0  7.199999999999999 -8.4 0  7.600000000000001 -8.4 0  8 -8.4 0  8.399999999999999 -8.4 0  8.800000000000001 -8.4 0  9.199999999999999 -8.4 0  9.600000000000001 -8.4 0  10 -8.4 0  -10 -8 0  -9.6 -8 0  -9.199999999999999 -8 0  -8.800000000000001 -8 0  -8.4 -8 0  -8 -8 0  -7.6 -8 0  -7.2 -8 0  -6.8 -8 0  -6.4 -8 0  -6 -8 0  -5.6 -8 0  -5.2 -8 0  -4.8 -8 0  -4.4 -8 0  -4 -8 0  -3.6 -8 0  -3.2 -8 0  -2.8 -8 0  -2.4 -8 0  -2 -8 0  -1.6 -8 0  -1.199999999999999 -8 0  -0.8000000000000007 -8 0  -0.4000000000000004 -8 0  0 -8 0  0.4000000000000004 -8 0  0.8000000000000007 -8 0  1.199999999999999 -8 0  1.6 -8 0  2 -8 0  2.4 -8 0  2.800000000000001 -8 0  3.199999999999999 -8 0  3.6 -8 0  4 -8 0  4.4 -8 0  4.800000000000001 -8 0  5.199999999999999 -8 0  5.6 -8 0  6 -8 0  6.399999999999999 -8 0  6.800000000000001 -8 0  7.199999999999999 -8 0  7.600000000000001 -8 0  8 -8 0  8.399999999999999 -8 0  8.800000000000001 -8 0  9.199999999999999 -8 0  9.600000000000001 -8 0  10 -8 0  -10 -7.6 0  -9.6 -7.6 0  -9.199999999999999 -7.6 0  -8.800000000000001 -7.6 0  -8.4 -7.6 0  -8 -7.6 0  -7.6 -7.6 0  -7.2 -7.6 0  -6.8 -7.6 0  -6.4 -7.6 0  -6 -7.6 0  -5.6 -7.6 0  -5.2 -7.6 0  -4.8 -7.6 0  -4.4 -7.6 0  -4 -7.6 0  -3.6 -7.6 0  -3.2 -7.6 0  -2.8 -7.6 0  -2.4 -7.6 0  -2 -7.6 0  -1.6 -7.6 0  -1.199999999999999 -7.6 0  -0.8000000000000007 -7.6 0  -0.4000000000000004 -7.6 0  0 -7.6 0  0.4000000000000004 -7.6 0  0.8000000000000007 -7.6 0  1.199999999999999 -7.6 0  1.6 -7.6 0  2 -7.6 0  2.4 -7.6 0  2.800000000000001 -7.6 0  3.199999999999999 -7.6 0  3.6 -7.6 0  4 -7.6 0  4.4 -7.6 0  4.800000000000001 -7.6 0  5.199999999999999 -7.6 0  5.6 -7.6 0  6 -7.6 0  6.399999999999999 -7.6 0  6.800000000000001 -7.6 0  7.199999999999999 -7.6 0  7.600000000000001 -7.6 0  8 -7.6 0  8.399999999999999 -7.6 0  8.800000000000001 -7.6 0  9.199999999999999 -7.6 0  9.600000000000001 -7.6 0  10 -7.6 0  -10 -7.2 0  -9.6 -7.2 0  -9.199999999999999 -7.2 0  -8.800000000000001 -7.2 0  -8.4 -7.2 0  -8 -7.2 0  -7.6 -7.2 0  -7.2 -7.2 0  -6.8 -7.2 0  -6.4 -7.2 0  -6 -7.2 0  -5.6 -7.2 0  -5.2 -7.2 0  -4.8 -7.2 0  -4.4 -7.2 0  -4 -7.2 0  -3.6 -7.2 0  -3.2 -7.2 0  -2.8 -7.2 0  -2.4 -7.2 0  -2 -7.2 0  -1.6 -7.2 0  -1.199999999999999 -7.2 0  -0.8000000000000007 -7.2 0  -0.4000000000000004 -7.2 0  0 -7.2 0  0.4000000000000004 -7.2 0  0.8000000000000007 -7.2 0  1.199999999999999 -7.2 0  1.6 -7.2 0  2 -7.2 0  2.4 -7.2 0  2.800000000000001 -7.2 0  3.199999999999999 -7.2 0  3.6 -7.2 0  4 -7.2 0  4.4 -7.2 0  4.800000000000001 -7.2 0  5.199999999999999 -7.2 0  5.6 -7.2 0  6 -7.2 0  6.399999999999999 -7.2 0  6.800000000000001 -7.2 0  7.199999999999999 -7.2 0  7.600000000000001 -7.2 0  8 -7.2 0  8.399999999999999 -7.2 0  8.800000000000001 -7.2 0  9.199999999999999 -7.2 0  9.600000000000001 -7.2 0  10 -7.2 0  -10 -6.8 0  -9.6 -6.8 0  -9.199999999999999 -6.8 0  -8.800000000000001 -6.8 0  -8.4 -6.8 0  -8 -6.8 0  -7.6 -6.8 0  -7.2 -6.8 0  -6.8 -6.8 0  -6.4 -6.8 0  -6 -6.8 0  -5.6 -6.8 0  -5.2 -6.8 0  -4.8 -6.8 0  -4.4 -6.8 0  -4 -6.8 0  -3.6 -6.8 0  -3.2 -6.8 0  -2.8 -6.8 0  -2.4 -6.8 0  -2 -6.8 0  -1.6 -6.8 0  -1.199999999999999 -6.8 0  -0.8000000000000007 -6.8 0  -0.4000000000000004 -6.8 0  0 -6.8 0  0.4000000000000004 -6.8 0  0.8000000000000007 -6.8 0  1.199999999999999 -6.8 0  1.6 -6.8 0  2 -6.8 0  2.4 -6.8 0  2.800000000000001 -6.8 0  3.199999999999999 -6.8 0  3.6 -6.8 0  4 -6.8 0  4.4 -6.8 0  4.800000000000001 -6.8 0  5.199999999999999 -6.8 0  5.6 -6.8 0  6 -6.8 0  6.399999999999999 -6.8 0  6.800000000000001 -6.8 0  7.199999999999999 -6.8 0  7.600000000000001 -6.8 0  8 -6.8 0  8.399999999999999 -6.8 0  8.800000000000001 -6.8 0  9.199999999999999 -6.8 0  9.600000000000001 -6.8 0  10 -6.8 0  -10 -6.4 0  -9.6 -6.4 0  -9.199999999999999 -6.4 0  -8.800000000000001 -6.4 0  -8.4 -6.4 0  -8 -6.4 0  -7.6 -6.4 0  -7.2 -6.4 0  -6.8 -6.4 0  -6.4 -6.4 0  -6 -6.4 0  -5.6 -6.4 0  -5.2 -6.4 0  -4.8 -6.4 0  -4.4 -6.4 0  -4 -6.4 0  -3.6 -6.4 0  -3.2 -6.4 0  -2.8 -6.4 0  -2.4 -6.4 0  -2 -6.4 0  -1.6 -6.4 0  -1.199999999999999 -6.4 0  -0.8000000000000007 -6.4 0  -0.4000000000000004 -6.4 0  0 -6.4 0
[...]
<PointData  Scalars="f_456"> 
<DataArray  type="Float64"  Name="f_456"  format="ascii">1.1965692265020633e-04  -8.0572390486314714e-04  1.3192932051315687e-03  -1.6120698353933795e-03  1.6359502575038977e-03  -1.3813220374278693e-03  8.8172985370849998e-04  -2.0966332909486021e-04  -5.3374812509076458e-04  1.2334787007192657e-03  -1.7776580607702878e-03  2.0744641127257114e-03  -2.0663871209278825e-03  1.7397452535331081e-03  -1.1279879943337874e-03  3.0819627651410887e-04  6.0884489988883520e-04  -1.4937001997583931e-03  2.2164105536240470e-03  -2.6651673525337331e-03  2.7628881127825405e-03  -2.4792978854717225e-03  1.8367120086989993e-03  -9.0856902965458404e-04  -1.8923824673767396e-04  1.3131784032544768e-03  -2.3111132287023176e-03  3.0429953041429814e-03  -3.4004053841635686e-03  3.3222150287033183e-03  -2.8041472648305584e-03  1.9008091331654087e-03  -7.1977763380470046e-04  -5.9160049960646326e-04  1.8650324097970728e-03  -2.9332745810988214e-03  3.6523845946938413e-03  -3.9212395499462829e-03  3.6956625662662216e-03  -2.9951927169360945e-03  1.9015003357134564e-03  -5.4855982785086696e-04  -8.9420284478577364e-04  2.2436202667540620e-03  -3.3265167479461129e-03  4.0023378086718395e-03  -4.1816699421929936e-03  3.8381332669372441e-03  -3.0115952791391555e-03  1.7973161035057016e-03  -2.6588631927139476e-04  -8.1355606542152627e-04  3.9266066483838119e-03  -6.3986024303469453e-03  7.8181285019790041e-03  -7.9367570529078665e-03  6.7063388447622784e-03  -4.2888655322910882e-03  1.0350001406058567e-03  2.5658679386248904e-03  -5.9569601916449281e-03  8.5966176087818157e-03  -1.0040052407251336e-02  1.0008395597209221e-02  -8.4347831467095329e-03  5.4803967581536512e-03  -1.5175943869117422e-03  -2.9180575504140966e-03  7.2005624000019523e-03  -1.0701153316740647e-02  1.2878624123748642e-02  -1.3359532422442814e-02  1.1996685998364585e-02  -8.8971809734988347e-03  4.4153852667179307e-03  8.8890826487106247e-04  -6.3220635009039929e-03  1.1148588512141297e-02  -1.4691200320470646e-02  1.6425304165969597e-02  -1.6054760466008084e-02  1.3558167452759949e-02  -9.1987580847972886e-03  3.4958815898547563e-03  2.8387449886906825e-03  -8.9919820749499845e-03  1.4155563635467919e-02  -1.7633651233889974e-02  1.8937195048170086e-02  -1.7852247860111282e-02  1.4472731986758025e-02  -9.1928299850701969e-03  2.6595362714163869e-03  4.3087515504380228e-03  -1.0827127882224336e-02  1.6058862946056691e-02  -1.9324765799582814e-02  2.0192714473795895e-02  -1.8535366556009555e-02  1.4548171583321209e-02  -8.7252032675614096e-03  1.8008408139792839e-03  1.4096190627611012e-03  -6.7710714888609812e-03  1.1035313551776803e-02  -1.3498336996202722e-02  1.3732144697855142e-02  -1.1651438692090919e-02  7.5302768306720856e-03  -1.9655063039573039e-03  -4.2082347665239155e-03  1.0040000777312890e-02  -1.4603153916922500e-02  1.7134820167198792e-02  -1.7153844344646871e-02  1.4539762620910991e-02  -9.5606973818608346e-03  2.8452479869786255e-03  4.6985974742541417e-03  -1.2006888464745761e-02  1.8008634275286216e-02  -2.1779483737466673e-02  2.2678404988276567e-02  -2.0447642627345403e-02  1.5261066517754971e-02  -7.7130208545907498e-03  -1.2520183887027624e-03  1.0460394742187714e-02  -1.8665049432735382e-02  2.4715235468115902e-02  -2.7716989991999296e-02  2.7162074252906235e-02  -2.3007065382972078e-02  1.5690834964374227e-02  -6.0869041321578365e-03  -4.6039909563454192e-03  1.5007562385618114e-02  -2.3755823206793595e-02  2.9669264383227728e-02  -3.1916864259342557e-02  3.0132128276572839e-02  -2.4469025864741943e-02  1.5589597271523438e-02  -4.5840918871209628e-03  -7.1664488269168169e-03  1.8167460201190873e-02  -2.7004801805899464e-02  3.2529812684293280e-02  -3.4010919451990008e-02  3.1231558983278791e-02  -2.4521262852279724e-02  1.4715793982670993e-02  -3.0522446617884738e-03  -1.9009995903530549e-03  9.1306494821756651e-03  -1.4894783050196068e-02  1.8253802312622910e-02  -1.8633456720417458e-02  1.5914573181407113e-02  -1.0455807200376924e-02  3.0457319097182967e-03  5.2093000051212342e-03  -1.3045754150237138e-02  1.9229071799085513e-02  -2.2738587286183855e-02  2.2924311167104500e-02  -1.9612432013910365e-02  1.3143473891671448e-02  -4.3364901854774842e-03  -5.6168393563081447e-03  1.5314285753360446e-02  -2.3339197498166448e-02  2.8463378262546312e-02  -2.9828030085900507e-02  2.7076711523240655e-02  -2.0420591490831634e-02  1.0625461303068229e-02  1.0792505878014496e-03  -1.3158320250987258e-02  2.3974789996090696e-02  -3.2012854670239906e-02  3.6089122563766556e-02  -3.5522916698865294e-02  3.0241460533338319e-02  -2.0804364433964107e-02  8.3426531127868634e-03  5.5808133780960115e-03  -1.9171855773682370e-02  3.0640226792853793e-02  -3.8438335922794643e-02  4.1471322651529308e-02  -3.9249841578018467e-02  3.1964326663761311e-02  -2.0469848258725470e-02  6.1825851477664727e-03  9.0991962017425917e-03  -2.3426537677775708e-02  3.4953254464948673e-02  -4.2177998307895294e-02  4.4142757739280829e-02  -4.0561265647383278e-02  3.1860002144067714e-02  -1.9126040886276292e-02  3.9681604391616793e-03  2.2527195202893908e-03  -1.0822318534803024e-02  1.7679120814271164e-02  -2.1723533579755715e-02  2.2279499490574835e-02  -1.9199064665386106e-02  1.2889591384991092e-02  -4.2592625199175367e-03  -5.4117621093043178e-03  1.4656433527313290e-02  -2.2035815992111910e-02  2.6353153015884947e-02  -2.6835992644705514e-02  2.3259630347040244e-02  -1.5993232754935124e-02  5.9608340048689801e-03  5.4785597192074566e-03  -1.6715952613582549e-02  2.6117162897264509e-02  -3.2256180589194314e-02  3.4124146197327954e-02  -3.1283962877553119e-02  2.3947745792293799e-02  -1.2964787376861221e-02  -2.7995232586447351e-04  1.4044333492341611e-02  -2.6461097229690745e-02  3.5792295294939963e-02  -4.0671311655920153e-02  4.0298889247865455e-02  -3.4565416006893439e-02  2.4081457674998055e-02  -1.0110851582602030e-02  -5.5860728859729513e-03  2.0979213507155207e-02  -3.4035638787315504e-02  4.2991206314776320e-02  -4.6590251662046230e-02  4.4260652512837340e-02  -3.6199954428481410e-02  2.3359994022043817e-02  -7.3310024400212326e-03  -9.8603074135494538e-03  2.6012503527549240e-02  -3.9036664511849839e-02  4.7231052605012036e-02  -4.9506655216722664e-02  4.5533386239394333e-02  -3.5787178657957192e-02  2.1491304836239494e-02  -4.4592348540227669e-03  -2.4342775787628752e-03  1.1698091495516861e-02  -1.9145026607088111e-02  2.3605891448357532e-02  -2.4356218340616794e-02  2.1226630061843069e-02  -1.4632508928431601e-02  5.5182893322186519e-03  4.7760901517714316e-03  -1.4707847479937260e-02  2.2755818919272613e-02  -2.7644660457826320e-02  2.8536502289848546e-02  -2.5162126483412650e-02  1.7872088077840038e-02  -7.5993919314461646e-03  -4.2621860298382970e-03  1.6048030017924486e-02  -2.6054905571942611e-02  3.2783205231338257e-02  -3.5155121281088830e-02  3.2677582115209582e-02  -2.5526122058549618e-02  1.4536602550122617e-02  -1.1043997726054569e-03  -1.2996430242651288e-02  2.5850192701702655e-02  -3.5660855669260666e-02  4.1001869186174413e-02  -4.1019860808239640e-02  3.5563461549625058e-02  -2.5218436808326881e-02  1.1242913672790464e-02  4.5899003116045946e-03  -2.0221380717472936e-02  3.3579298802499859e-02  -4.2855472733942475e-02  4.6751762741973610e-02  -4.4660823298357272e-02  3.6756530813699860e-02  -2.3980982949925473e-02  7.9288099205874433e-03  9.3566186051704248e-03  -2.5648543401056878e-02  3.8828721201795348e-02  -4.7167103380738346e-02  4.9551928499820069e-02  -4.5639325286935824e-02  3.5902154993455150e-02  -2.1571206198677858e-02  4.4761998040310017e-03  2.4248643701089540e-03  -1.1657421384654944e-02  1.9123664406413863e-02  -2.3683144002933101e-02  2.4621891177980783e-02  -2.1759012239912254e-02  1.5476560660626281e-02  -6.6680981067849029e-03  -3.3870812526940611e-03  1.3206479792459170e-02  -2.1317932486216436e-02  2.6473844273426052e-02  -2.7835522616947654e-02  2.5101019278214957e-02  -1.8557691827107769e-02  9.0511929462099242e-03  2.1256636609637497e-03  -1.3409367494372751e-02  2.3183355565720778e-02  -3.0006641583126069e-02  3.2821368753925884e-02  -3.1109829762711434e-02  2.4978242305815287e-02  -1.5154545766609823e-02  2.8993301645624339e-03  1.0158908843508558e-02  -2.2242351351964975e-02  3.1666715102897022e-02  -3.7075141762102214e-02  3.7630712554023615e-02  -3.3140538868935705e-02  2.4093491180398448e-02  -1.1605299487900509e-02  -2.7226064584703899e-03  1.7012276083363871e-02  -2.9358719526420843e-02  3.8086211789547811e-02  -4.1976702916770268e-02  4.0439105983109888e-02  -3.3596001817174037e-02  2.2275311631447258e-02  -7.9072638949618818e-03  -7.6602093612704973e-03  2.2403410407293545e-02  -3.4390034348936852e-02  4.2035864291105736e-02  -4.4316555997565864e-02  4.0905958046968581e-02  -3.2222178572643471e-02  1.9374937026208860e-02  -4.0209741775519411e-03  -2.2160869611547751e-03  1.0659246171493240e-02  -1.7540718777099333e-02  2.1847435233596772e-02  -2.2936153076419670e-02  2.0626857033994434e-02  -1.5230441881114122e-02  7.5065867762259776e-03  1.4424434573605141e-03  -1.0327293048448984e-02  1.7854537588027117e-02  -2.2911505695526184e-02  2.4726805323491027e-02  -2.2983748275360729e-02  1.7870362669514563e-02  -1.0058491867975916e-02  6.1437865027198064e-04  9.1472500227215321e-03  -1.7845592125263321e-02  2.4227423870194990e-02  -2.7344993370684884e-02  2.6693147128053846e-02  -2.2286171227322127e-02  1.4663067059871911e-02  -4.8198399010125469e-03  -5.9225003542758003e-03  1.6096543941959050e-02  -2.4289413651066839e-02  2.9338464282134692e-02  -3.0494690774789352e-02  2.7531025358873071e-02  -2.0780115982588387e-02  1.1095759007228322e-02  2.5739730642742497e-04  -1.1771387994928580e-02  2.1897269002176901e-02  -2.9254904126494109e-02  3.2821649166253124e-02  -3.2074081689482614e-02  2.7063172648886968e-02  -1.8412251717962281e-02  7.2375687293413666e-03  4.9982232853727692e-03  -1.6680177399803233e-02  2.6256725342056250e-02  -3.2447858066132443e-02  3.4417671928847073e-02  -3.1887875616357080e-02  2.5176779192855180e-02  -1.5158331105495117e-02  3.1465718815771736e-03  1.8140855869784474e-03  -8.7321674721930354e-03  1.4434046174021506e-02  -1.8124954542003399e-02  1.9289273565078435e-02  -1.7762245055797186e-02  1.3753088548151037e-02  -7.8162962787054029e-03  7.7504836424160278e-04  6.3926838930355497e-03  -1.2689610552768444e-02  1.7237439270874486e-02  -1.9398893906124086e-02  1.8866529649908498e-02  -1.5706012531742398e-02  1.0347812572082244e-02  -3.5283835509333219e-03  -3.8111150592338335e-03  1.0654620632553222e-02  -1.6051600745339116e-02  1.9248729219228742e-02  -1.9794597021080922e-02  1.7602944857587895e-02  -1.2965607002333160e-02  6.5132812530060580e-03  8.7056452817060371e-04  -8.1708665027840025e-03  1.4380579366777833e-02  -1.8639521261139814e-02  2.0353312682487686e-02  -1.9275983939834814e-02  1.5544802720718840e-02  -9.6624341963112235e-03  2.4287884738543068e-03  5.1681615835645518e-03  -1.2087649899652119e-02  1.7378921139832828e-02  -2.0311953398032032e-02  2.0478117586089754e-02  -1.7846899773465201e-02  1.2770832396504226e-02  -5.9378858027345658e-03  -1.7222134125664363e-03  9.1649375702106944e-03  -1.5373806721346476e-02  1.9499554470054161e-02  -2.0976524218982922e-02  1.9600319962833335e-02  -1.5556041856568201e-02  9.3932108754806887e-03  -1.9507993738699997e-03  -1.2408634912516759e-03  5.9809741507850156e-03  -9.9657515326848720e-03  1.2694070262205490e-02  -1.3826699261253237e-02  1.3229517156817914e-02  -1.0989887995854800e-02  7.4041418385906348e-03  -2.9379303226907999e-03  -1.8351954221357064e-03  6.3087858208768369e-03  -9.9221267073548482e-03  1.2232145669277486e-02  -1.2969197953129225e-02  1.2069551086971313e-02  -9.6805403791808461e-03  6.1380322825726882e-03  -1.9195143610136402e-03  -2.4206652985668694e-03  6.3250865670087079e-03  -9.3061568266722683e-03  1.1008452999520246e-02  -1.1252381611355406e-02  1.0053651139104860e-02  -7.6163794989988261e-03  4.3012395522955922e-03  -5.7338866077280017e-04  -3.0624164784649891e-03  6.1305045016543198e-03  -8.2473939942902738e-03  9.1708578623434234e-03  -8.8285501578739146e-03  7.3227069548471016e-03  -4.9107791192882569e-03  1.9651717805146676e-03  1.0819035780421666e-03  -3.8004989169665034e-03  5.8231287424484928e-03  -6.8947133675669606e-03  6.9054525081130207e-03  -5.9023187313875444e-03  4.0779365949691086e-03  -1.7388258103584692e-03  -7.4211589055397475e-04  2.9818370214912482e-03  -4.6438532808535131e-03  5.4872730211359003e-03  -5.4011181685101354e-03  4.4191047033328877e-03  -2.7128970198452241e-03  5.6496936336174176e-04  5.3445915945708646e-04  -2.5876273863496015e-03  4.4253641917620440e-03  -5.8928380535326567e-03  6.8632535432450867e-03  -7.2480886001257613e-03  7.0049581109959567e-03  -6.1424352578085019e-03  4.7212633195355116e-03  -2.8515609660202967e-03  6.8587107738880099e-04  1.5917778866621590e-03  -3.7802576069045067e-03  5.6782426773932118e-03  -7.1023380774217311e-03  7.9048553461223033e-03  -7.9895066409000973e-03  7.3233006871741765e-03  -5.9431330841145120e-03  3.9559670265806113e-03  -1.5320749980742875e-03  -1.1084923897662767e-03  3.7152980820554606e-03  -6.0311468788758682e-03  7.8177380792657271e-03  -8.8807468737914612e-03  9.0916227337003580e-03  -8.4035793563332194e-03  6.8597390121575737e-03  -4.5921469663593719e-03  1.8113168169303624e-03  1.2129949523341063e-03  -4.1780745468741626e-03  6.7790193526690457e-03  -8.7408002282739240e-03  9.8481553037795336e-03  -9.9699647583922149e-03  9.0752559952910518e-03  -7.2388321512482931e-03  4.6356179007551188e-03  -1.5240550387515706e-03  -1.7798842636220949e-03  4.9354099746903779e-03  -7.6128845871711965e-03  9.5291500380588132e-03  -1.0478312643589751e-02  1.0354534380397780e-02  -9.1642252727339515e-03  7.0261857726069332e-03  -4.1595798056900252e-03  8.6097731228696980e-04  2.5236685756704989e-04  -1.1949009882963515e-03  1.7787703009692745e-03  -1.7882290216540502e-03  1.1182477741702550e-03  2.0107076237370347e-04  -2.0026745169280805e-03  4.0041647978739285e-03  -5.8499782145329934e-03  7.1680223526716042e-03  -7.6322295857999024e-03  7.0213291345002597e-03  -5.2644132871724116e-03  2.4655748103663308e-03  1.0972037800543511e-03  -5.0000243944562572e-03  8.7250471232786266e-03  -1.1729920140932926e-02  1.3525284958875476e-02  -1.3749413650120512e-02  1.2229004631226260e-02  -9.0167117293783999e-03  4.3989278862885690e-03  1.1286903631037700e-03  -6.9160225842458522e-03  1.2237352948712634e-02  -1.6384469593841558e-02  1.8761830724713185e-02  -1.8970919381735060e-02  1.6871946240117220e-02  -1.2613749215938356e-02  6.6267508628440946e-03  4.2134737931572112e-04  -7.7024692348319351e-03  1.4328519578256069e-02  -1.9462685454286189e-02  2.2427410857663935e-02  -2.2794873531230372e-02  2.0447776085476779e-02  -1.5601899913928692e-02  8.7867016080156023e-03  -7.8563399169997408e-04  -7.4568602047879280e-03  1.4950302872829778e-02  -2.0780702868022416e-02  2.4225105434346108e-02  -2.4843480080850047e-02  2.2536028676218862e-02  -1.7558336685854110e-02  1.0492145006880210e-02  -2.1751935708802222e-03  -1.0551257338325913e-03  5.0568991456558547e-03  -8.1416961498998273e-03  9.7309067538254301e-03  -9.4878017926939874e-03  7.3752135581172237e-03  -3.6674312637852576e-03  -1.0859765983275732e-03  6.1395835725178930e-03  -1.0663473744734482e-02  1.3870384357856589e-02  -1.5139880305378032e-02  1.4120948386412270e-02  -1.0797237620837143e-02  5.5043400930252515e-03  1.1047087862358612e-03  -8.1420832260778453e-03  1.4605288979771026e-02  -1.9518417531522406e-02  2.2074773672809425e-02  -2.1760445568518031e-02  1.8440603681606726e-02  -1.2395155142897126e-02  4.2972046809437612e-03  4.8643431381682565e-03  -1.3908849534067735e-02  2.1618752688665123e-02  -2.6904552091675880e-02  2.8957504375604647e-02  -2.7368748577711301e-02  2.2197712713227648e-02  -1.3979220642161777e-02  3.6668534752406735e-03  7.4812673419752639e-03  -1.8060187876163661e-02  2.6699095138168951e-02  -3.2241834733090287e-02  3.3902906603773993e-02  -3.1377766078591829e-02  2.4892036380525211e-02  -1.5182157482288456e-02  3.4090112217496781e-03  8.9850265410345003e-03  -2.0457545304730516e-02  2.9562730334229712e-02  -3.5137600198262980e-02  3.6453439342880610e-02  -3.3312408577779472e-02  2.6076387657034735e-02  -1.5623923949609018e-02  3.2405642037600995e-03  1.8022720877273583e-03  -8.6543020792891525e-03  1.4097857373406157e-02  -1.7232221448494799e-02  1.7509963264665859e-02  -1.4823433691775387e-02  9.5262476095944685e-03  -2.3861549808134384e-03  -5.5243590708999729e-03  1.2984326807342687e-02  -1.8805064032307774e-02  2.2009345027001168e-02  -2.1982826936707004e-02  1.8575254649437503e-02  -1.2135916695539971e-02  3.4770535300299135e-03  6.2308465556864317e-03  -1.5618130846382935e-02  2.3307739469580688e-02  -2.8112928557508823e-02  2.9212955347204233e-02  -2.6281356235893026e-02  1.9547689772564717e-02  -9.7826321401284031e-03  -1.7931252334026119e-03  1.3665071985186636e-02  -2.4225801920826275e-02  3.1993727538731483e-02  -3.5819721087131856e-02  3.5052975933829035e-02  -2.9642517660943932e-02  2.0159245554714458e-02  -7.7340279750906290e-03  -6.0812274527645652e-03  1.9512009583723892e-02  -3.0793285581176898e-02  3.8404448551548953e-02  -4.1275555929848461e-02  3.8936761747913141e-02  -3.1590164103960830e-02  2.0093488113778764e-02  -5.8567461763262040e-03  -9.3353121861032284e-03  2.3552106180718315e-02  -3.4967582311212268e-02  4.2099036755575865e-02  -4.4002726709329636e-02  4.0400155530842252e-02  -3.1717993445246888e-02  1.9035985222925308e-02  -3.9493785217843353e-03  -2.4213140555443212e-03  1.1638055559901168e-02  -1.9069169756487619e-02  2.3563757345524225e-02  -2.4405099205666088e-02  2.1418735465918770e-02  -1.5002111615530153e-02  6.0711700548389414e-03  4.0688847352258473e-03  -1.3910552719700530e-02  2.1962295774564534e-02  -2.6967007208636699e-02  2.8089354150588761e-02  -2.5044829371314647e-02  1.8151396423035860e-02  -8.2954205498825938e-03  -3.1843549322196911e-03  1.4679388256228599e-02  -2.4535502483194947e-02  3.1287509045417591e-02  -3.3871327179827285e-02  3.1783396149314670e-02  -2.5164192908000069e-02  1.4792994817838594e-02  -1.9932553857130849e-03  -1.1539593819934501e-02  2.3965166788417504e-02  -3.3549328858852250e-02  3.8905206362169070e-02  -3.9190600390475117e-02  3.4234003040409737e-02  -2.4570899983246804e-02  1.1384143165872969e-02  3.6447494110510856e-03  -1.8554251645458000e-02  3.1362572563204481e-02  -4.0333712372734060e-02  4.4213851580306399e-02  -4.2405777463783115e-02  3.5057158730112607e-02  -2.3049933319468471e-02  7.8913373672330391e-03  8.4796163921146174e-03  -2.3944908869102246e-02  3.6486092647172043e-02  -4.4451571853726148e-02  4.6776801878312964e-02  -4.3127780164801378e-02  3.3948365923241755e-02  -2.0404784829935178e-02  4.2344206258491772e-03  2.8458793980243582e-03  -1.3688142175165216e-02  2.2521394865188105e-02  -2.8042740566391548e-02  2.9425558294611600e-02  -2.6439694817514500e-02  1.9486969407873974e-02  -9.5467368952465454e-03  -1.9610804352983386e-03  1.3376428236513575e-02  -2.3034950824375223e-02  2.9506047874995348e-02  -3.1799524681948792e-02  2.9511453414121105e-02  -2.2888247856163633e-02  1.2799317643855852e-02  -6.2143615332457434e-04  -1.1949646900871417e-02  2.3134521282758568e-02  -3.1319783510302270e-02  3.5287230736154827e-02  -3.4390347124212524e-02  2.8652942123830835e-02  -1.8775436187367222e-02  6.0470109551386290e-03  7.8251038417314709e-03  -2.0946352674446264e-02  3.1494233950218248e-02  -3.7970764781534549e-02  3.9413122028696040e-02  -3.5533035535520792e-02  2.6765085474930617e-02  -1.4216427955635552e-02  -4.7604643481237885e-04  1.5362374515562195e-02  -2.8441007214878185e-02  3.7929788367911131e-02  -4.2509556781867727e-02  4.1507000234448380e-02  -3.4991466687376432e-02  2.3772008393503963e-02  -9.2944330238970661e-03  -6.5482739870765371e-03  2.1666963749065505e-02  -3.4055136133575074e-02  4.2058007726519707e-02  -4.4595477887013894e-02  4.1308759963755513e