<?xml version="1.0"?>
<VTKFile type="UnstructuredGrid"  version="0.1"  >
<UnstructuredGrid>
<Piece  NumberOfPoints="2601" NumberOfCells="5000">
<Points>
<DataArray  type="Float64"  NumberOfComponents="3"  format="ascii">-10 -10 0  -9.6 -10 0  -9.199999999999999 -10 0  -8.800000000000001 -10 0  -8.4 -10 0  -8 -10 0  -7.6 -10 0  -7.2 -10 0  -6.8 -10 0  -6.4 -10 0  -6 -10 0  -5.6 -10 0  -5.2 -10 0  -4.8 -10 0  -4.4 -10 0  -4 -10 0  -3.6 -10 0  -3.2 -10 0  -2.8 -10 0  -2.4 -10 0  -2 -10 0  -1.6 -10 0  -1.199999999999999 -10 0  -0.8000000000000007 -10 0  -0.4000000000000004 -10 0  0 -10 0  0.4000000000000004 -10 0  0.8000000000000007 -10 0  1.199999999999999 -10 0  1.6 -10 0  2 -10 0  2.4 -10 0  2.800000000000001 -10 0  3.199999999999999 -10 0  3.6 -10 0  4 -10 0  4.4 -10 0  4.800000000000001 -10 0  5.199999999999999 -10 0  5.6 -10 0  6 -10 0  6.399999999999999 -10 0  6.800000000000001 -10 0  7.199999999999999 -10 0  7.600000000000001 -10 0  8 -10 0  8.399999999999999 -10 0  8.800000000000001 -10 0  9.199999999999999 -10 0  9.600000000000001 -10 0  10 -10 0  -10 -9.6 0  -9.6 -9.6 0  -9.199999999999999 -9.6 0  -8.800000000000001 -9.6 0  -8.4 -9.6 0  -8 -9.6 0  -7.6 -9.6 0  -7.2 -9.6 0  -6.8 -9.6 0  -6.4 -9.6 0  -6 -9.6 0  -5.6 -9.6 0  -5.2 -9.6 0  -4.8 -9.6 0  -4.4 -9.6 0  -4 -9.6 0  -3.6 -9.6 0  -3.2 -9.6 0  -2.8 -9.6 0  -2.4 -9.6 0  -2 -9.6 0  -1.6 -9.6 0  -1.199999999999999 -9.6 0  -0.8000000000000007 -9.6 0  -0.4000000000000004 -9.6 0  0 -9.6 0  0.4000000000000004 -9.6 0  0.8000000000000007 -9.6 0  1.199999999999999 -9.6 0  1.6 -9.6 0  2 -9.6 0  2.4 -9.6 0  2.800000000000001 -9.6 0  3.199999999999999 -9.6 0  3.6 -9.6 0  4 -9.6 0  4.4 -9.6 0  4.800000000000001 -9.6 0  5.199999999999999 -9.6 0  5.6 -9.6 0  6 -9.6 0  6.399999999999999 -9.6 0  6.800000000000001 -9.6 0  7.199999999999999 -9.6 0  7.600000000000001 -9.6 0  8 -9.6 0  8.399999999999999 -9.6 0  8.800000000000001 -9.6 0  9.199999999999999 -9.6 0  9.600000000000001 -9.6 0  10 -9.6 0  -10 -9.199999999999999 0  -9.6 -9.199999999999999 0  -9.199999999999999 -9.199999999999999 0  -8.800000000000001 -9.199999999999999 0  -8.4 -9.199999999999999 0  -8 -9.199999999999999 0  -7.6 -9.199999999999999 0  -7.2 -9.199999999999999 0  -6.8 -9.199999999999999 0  -6.4 -9.199999999999999 0  -6 -9.199999999999999 0  -5.6 -9.199999999999999 0  -5.2 -9.199999999999999 0  -4.8 -9.199999999999999 0  -4.4 -9.199999999999999 0  -4 -9.199999999999999 0  -3.6 -9.199999999999999 0  -3.2 -9.199999999999999 0  -2.8 -9.199999999999999 0  -2.4 -9.199999999999999 0  -2 -9.199999999999999 0  -1.6 -9.199999999999999 0  -1.199999999999999 -9.199999999999999 0  -0.8000000000000007 -9.199999999999999 0  -0.4000000000000004 -9.199999999999999 0  0 -9.199999999999999 0  0.4000000000000004 -9.199999999999999 0  0.8000000000000007 -9.199999999999999 0  1.199999999999999 -9.199999999999999 0  1.6 -9.199999999999999 0  2 -9.199999999999999 0  2.4 -9.199999999999999 0  2.800000000000001 -9.199999999999999 0  3.199999999999999 -9.199999999999999 0  3.6 -9.199999999999999 0  4 -9.199999999999999 0  4.4 -9.199999999999999 0  4.800000000000001 -9.199999999999999 0  5.199999999999999 -9.199999999999999 0  5.6 -9.199999999999999 0  6 -9.199999999999999 0  6.399999999999999 -9.199999999999999 0  6.800000000000001 -9.199999999999999 0  7.199999999999999 -9.199999999999999 0  7.600000000000001 -9.199999999999999 0  8 -9.199999999999999 0  8.399999999999999 -9.199999999999999 0  8.800000000000001 -9.199999999999999 0  9.199999999999999 -9.199999999999999 0  9.600000000000001 -9.199999999999999 0  10 -9.199999999999999 0  -10 -8.800000000000001 0  -9.6 -8.800000000000001 0  -9.199999999999999 -8.800000000000001 0  -8.800000000000001 -8.800000000000001 0  -8.4 -8.800000000000001 0  -8 -8.800000000000001 0  -7.6 -8.800000000000001 0  -7.2 -8.800000000000001 0  -6.8 -8.800000000000001 0  -6.4 -8.800000000000001 0  -6 -8.800000000000001 0  -5.6 -8.800000000000001 0  -5.2 -8.800000000000001 0  -4.8 -8.800000000000001 0  -4.4 -8.800000000000001 0  -4 -8.800000000000001 0  -3.6 -8.800000000000001 0  -3.2 -8.800000000000001 0  -2.8 -8.800000000000001 0  -2.4 -8.800000000000001 0  -2 -8.800000000000001 0  -1.6 -8.800000000000001 0  -1.199999999999999 -8.800000000000001 0  -0.8000000000000007 -8.800000000000001 0  -0.4000000000000004 -8.800000000000001 0  0 -8.800000000000001 0  0.4000000000000004 -8.800000000000001 0  0.8000000000000007 -8.800000000000001 0  1.199999999999999 -8.800000000000001 0  1.6 -8.800000000000001 0  2 -8.800000000000001 0  2.4 -8.800000000000001 0  2.800000000000001 -8.800000000000001 0  3.199999999999999 -8.800000000000001 0  3.6 -8.800000000000001 0  4 -8.800000000000001 0  4.4 -8.800000000000001 0  4.800000000000001 -8.800000000000001 0  5.199999999999999 -8.800000000000001 0  5.6 -8.800000000000001 0  6 -8.800000000000001 0  6.399999999999999 -8.800000000000001 0  6.800000000000001 -8.800000000000001 0  7.199999999999999 -8.800000000000001 0  7.600000000000001 -8.800000000000001 0  8 -8.800000000000001 0  8.399999999999999 -8.800000000000001 0  8.800000000000001 -8.800000000000001 0  9.199999999999999 -8.800000000000001 0  9.600000000000001 -8.800000000000001 0  10 -8.800000000000001 0  -10 -8.4 0  -9.6 -8.4 0  -9.199999999999999 -8.4 0  -8.800000000000001 -8.4 0  -8.4 -8.4 0  -8 -8.4 0  -7.6 -8.4 0  -7.2 -8.4 0  -6.8 -8.4 0  -6.4 -8.4 0  -6 -8.4 0  -5.6 -8.4 0  -5.2 -8.4 0  -4.8 -8.4 0  -4.4 -8.4 0  -4 -8.4 0  -3.6 -8.4 0  -3.2 -8.4 0  -2.8 -8.4 0  -2.4 -8.4 0  -2 -8.4 0  -1.6 -8.4 0  -1.199999999999999 -8.4 0  -0.8000000000000007 -8.4 0  -0.4000000000000004 -8.4 0  0 -8.4 0  0.4000000000000004 -8.4 0  0.8000000000000007 -8.4 0  1.199999999999999 -8.4 0  1.6 -8.4 0  2 -8.4 0  2.4 -8.4 0  2.800000000000001 -8.4 0  3.199999999999999 -8.4 0  3.6 -8.4 0  4 -8.4 0  4.4 -8.4 0  4.800000000000001 -8.4 0  5.199999999999999 -8.4 0  5.6 -8.4 0  6 -8.4 0  6.399999999999999 -8.4 0  6.800000000000001 -8.4 0  7.199999999999999 -8.4 0  7.600000000000001 -8.4 0  8 -8.4 0  8.399999999999999 -8.4 0  8.800000000000001 -8.4 0  9.199999999999999 -8.4 0  9.600000000000001 -8.4 0  10 -8.4 0  -10 -8 0  -9.6 -8 0  -9.199999999999999 -8 0  -8.800000000000001 -8 0  -8.4 -8 0  -8 -8 0  -7.6 -8 0  -7.2 -8 0  -6.8 -8 0  -6.4 -8 0  -6 -8 0  -5.6 -8 0  -5.2 -8 0  -4.8 -8 0  -4.4 -8 0  -4 -8 0  -3.6 -8 0  -3.2 -8 0  -2.8 -8 0  -2.4 -8 0  -2 -8 0  -1.6 -8 0  -1.199999999999999 -8 0  -0.8000000000000007 -8 0  -0.4000000000000004 -8 0  0 -8 0  0.4000000000000004 -8 0  0.8000000000000007 -8 0  1.199999999999999 -8 0  1.6 -8 0  2 -8 0  2.4 -8 0  2.800000000000001 -8 0  3.199999999999999 -8 0  3.6 -8 0  4 -8 0  4.4 -8 0  4.800000000000001 -8 0  5.199999999999999 -8 0  5.6 -8 0  6 -8 0  6.399999999999999 -8 0  6.800000000000001 -8 0  7.199999999999999 -8 0  7.600000000000001 -8 0  8 -8 0  8.399999999999999 -8 0  8.800000000000001 -8 0  9.199999999999999 -8 0  9.600000000000001 -8 0  10 -8 0  -10 -7.6 0  -9.6 -7.6 0  -9.199999999999999 -7.6 0  -8.800000000000001 -7.6 0  -8.4 -7.6 0  -8 -7.6 0  -7.6 -7.6 0  -7.2 -7.6 0  -6.8 -7.6 0  -6.4 -7.6 0  -6 -7.6 0  -5.6 -7.6 0  -5.2 -7.6 0  -4.8 -7.6 0  -4.4 -7.6 0  -4 -7.6 0  -3.6 -7.6 0  -3.2 -7.6 0  -2.8 -7.6 0  -2.4 -7.6 0  -2 -7.6 0  -1.6 -7.6 0  -1.199999999999999 -7.6 0  -0.8000000000000007 -7.6 0  -0.4000000000000004 -7.6 0  0 -7.6 0  0.4000000000000004 -7.6 0  0.8000000000000007 -7.6 0  1.199999999999999 -7.6 0  1.6 -7.6 0  2 -7.6 0  2.4 -7.6 0  2.800000000000001 -7.6 0  3.199999999999999 -7.6 0  3.6 -7.6 0  4 -7.6 0  4.4 -7.6 0  4.800000000000001 -7.6 0  5.199999999999999 -7.6 0  5.6 -7.6 0  6 -7.6 0  6.399999999999999 -7.6 0  6.800000000000001 -7.6 0  7.199999999999999 -7.6 0  7.600000000000001 -7.6 0  8 -7.6 0  8.399999999999999 -7.6 0  8.800000000000001 -7.6 0  9.199999999999999 -7.6 0  9.600000000000001 -7.6 0  10 -7.6 0  -10 -7.2 0  -9.6 -7.2 0  -9.199999999999999 -7.2 0  -8.800000000000001 -7.2 0  -8.4 -7.2 0  -8 -7.2 0  -7.6 -7.2 0  -7.2 -7.2 0  -6.8 -7.2 0  -6.4 -7.2 0  -6 -7.2 0  -5.6 -7.2 0  -5.2 -7.2 0  -4.8 -7.2 0  -4.4 -7.2 0  -4 -7.2 0  -3.6 -7.2 0  -3.2 -7.2 0  -2.8 -7.2 0  -2.4 -7.2 0  -2 -7.2 0  -1.6 -7.2 0  -1.199999999999999 -7.2 0  -0.8000000000000007 -7.2 0  -0.4000000000000004 -7.2 0  0 -7.2 0  0.4000000000000004 -7.2 0  0.8000000000000007 -7.2 0  1.199999999999999 -7.2 0  1.6 -7.2 0  2 -7.2 0  2.4 -7.2 0  2.800000000000001 -7.2 0  3.199999999999999 -7.2 0  3.6 -7.2 0  4 -7.2 0  4.4 -7.2 0  4.800000000000001 -7.2 0  5.199999999999999 -7.2 0  5.6 -7.2 0  6 -7.2 0  6.399999999999999 -7.2 0  6.800000000000001 -7.2 0  7.199999999999999 -7.2 0  7.600000000000001 -7.2 0  8 -7.2 0  8.399999999999999 -7.2 0  8.800000000000001 -7.2 0  9.199999999999999 -7.2 0  9.600000000000001 -7.2 0  10 -7.2 0  -10 -6.8 0  -9.6 -6.8 0  -9.199999999999999 -6.8 0  -8.800000000000001 -6.8 0  -8.4 -6.8 0  -8 -6.8 0  -7.6 -6.8 0  -7.2 -6.8 0  -6.8 -6.8 0  -6.4 -6.8 0  -6 -6.8 0  -5.6 -6.8 0  -5.2 -6.8 0  -4.8 -6.8 0  -4.4 -6.8 0  -4 -6.8 0  -3.6 -6.8 0  -3.2 -6.8 0  -2.8 -6.8 0  -2.4 -6.8 0  -2 -6.8 0  -1.6 -6.8 0  -1.199999999999999 -6.8 0  -0.8000000000000007 -6.8 0  -0.4000000000000004 -6.8 0  0 -6.8 0  0.4000000000000004 -6.8 0  0.8000000000000007 -6.8 0  1.199999999999999 -6.8 0  1.6 -6.8 0  2 -6.8 0  2.4 -6.8 0  2.800000000000001 -6.8 0  3.199999999999999 -6.8 0  3.6 -6.8 0  4 -6.8 0  4.4 -6.8 0  4.800000000000001 -6.8 0  5.199999999999999 -6.8 0  5.6 -6.8 0  6 -6.8 0  6.399999999999999 -6.8 0  6.800000000000001 -6.8 0  7.199999999999999 -6.8 0  7.600000000000001 -6.8 0  8 -6.8 0  8.399999999999999 -6.8 0  8.800000000000001 -6.8 0  9.199999999999999 -6.8 0  9.600000000000001 -6.8 0  10 -6.8 0  -10 -6.4 0  -9.6 -6.4 0  -9.199999999999999 -6.4 0  -8.800000000000001 -6.4 0  -8.4 -6.4 0  -8 -6.4 0  -7.6 -6.4 0  -7.2 -6.4 0  -6.8 -6.4 0  -6.4 -6.4 0  -6 -6.4 0  -5.6 -6.4 0  -5.2 -6.4 0  -4.8 -6.4 0  -4.4 -6.4 0  -4 -6.4 0  -3.6 -6.4 0  -3.2 -6.4 0  -2.8 -6.4 0  -2.4 -6.4 0  -2 -6.4 0  -1.6 -6.4 0  -1.199999999999999 -6.4 0  -0.8000000000000007 -6.4 0  -0.4000000000000004 -6.4 0  0 -6.4 0
[...]
<PointData  Scalars="f_555"> 
<DataArray  type="Float64"  Name="f_555"  format="ascii">1.4286630429842054e-04  -9.7400454186349222e-04  1.7525872340228509e-03  -2.5110922398157961e-03  3.2321399608000317e-03  -3.8839252552064218e-03  4.4262624446883446e-03  -4.8165604224337279e-03  5.0171053939285278e-03  -5.0022428792499754e-03  4.7638061616716038e-03  -4.3135077977264052e-03  3.6816998087190376e-03  -2.9127478844858290e-03  2.0580475410993298e-03  -1.1682451831545140e-03  2.8638872606279127e-04  5.5651680130762665e-04  -1.3426829504683674e-03  2.0653712327720593e-03  -2.7241408959576027e-03  3.3188840136701920e-03  -3.8443068955125110e-03  4.2863889296464357e-03  -4.6218464465448035e-03  4.8208672509936950e-03  -4.8525545710871422e-03  4.6918204361712859e-03  -4.3260783606249931e-03  3.7600872494452054e-03  -3.0177129569023691e-03  2.1400745707067818e-03  -1.1803924326389660e-03  1.9661776461536089e-04  7.5655804915457218e-04  -1.6345878686484577e-03  2.4073963030212162e-03  -3.0603262527581334e-03  3.5916951855773523e-03  -4.0077619353369835e-03  4.3165144154591441e-03  -4.5219493836742009e-03  4.6203622415795492e-03  -4.5996441736280225e-03  4.4418096875028165e-03  -4.1281580709265379e-03  3.6457793437795014e-03  -2.9937285021348725e-03  2.1869392163562425e-03  -1.2533074825301586e-03  1.8487168281504384e-04  -9.4686895233553402e-04  4.6261343498388476e-03  -8.2868489107628725e-03  1.1877671601558913e-02  -1.5298811772208929e-02  1.8397040876219174e-02  -2.0979591461201850e-02  2.2841678026001046e-02  -2.3801603836988840e-02  2.3735497241845437e-02  -2.2603594147556978e-02  2.0461828374043155e-02  -1.7455854144141695e-02  1.3798686115282054e-02  -9.7369350179517030e-03  5.5132087151718726e-03  -1.3330310329548881e-03  -2.6565889258508796e-03  6.3727248672519029e-03  -9.7859302088558215e-03  1.2897105392143867e-02  -1.5708500089130387e-02  1.8196884721953775e-02  -2.0296313767326057e-02  2.1895459375434665e-02  -2.2850808083187606e-02  2.3012998888870578e-02  -2.2260205844892501e-02  2.0530563961145800e-02  -1.7845668703595514e-02  1.4319154506257150e-02  -1.0147788665845666e-02  5.5865952564015118e-03  -9.1325238085704504e-04  -3.6105119776304374e-03  7.7721540179121092e-03  -1.1429165708054674e-02  1.4513549465599476e-02  -1.7019875658191203e-02  1.8980808118184089e-02  -2.0436931486582592e-02  2.1408975523100570e-02  -2.1879797292939974e-02  2.1790945718983157e-02  -2.1054903979717172e-02  1.9580100084483031e-02  -1.7302479826483603e-02  1.4215621980021017e-02  -1.0391512192217706e-02  5.9863011721804915e-03  -1.2323375349916656e-03  1.4420139734341786e-03  -7.0136348548941177e-03  1.2592425993271551e-02  -1.8119347333437230e-02  2.3444864257219155e-02  -2.8322929325476299e-02  3.2434140398009549e-02  -3.5433213300540653e-02  3.7010130880264738e-02  -3.6950880976407648e-02  3.5183540580387411e-02  -3.1798728718526709e-02  2.7039359613138809e-02  -2.1261776954888900e-02  1.4877001180454772e-02  -8.2853893160792485e-03  1.8193644224512398e-03  4.2932700609327338e-03  -9.9380539072736612e-03  1.5094132395150481e-02  -1.9792496718691047e-02  2.4063958405701788e-02  -2.7891031079418097e-02  3.1176803030764998e-02  -3.3739585156368275e-02  3.5335631432320186e-02  -3.5705163539841121e-02  3.4630983781465813e-02  -3.1995608411197723e-02  2.7822901511148308e-02  -2.2293652172311364e-02  1.5730572862451442e-02  -8.5553577043028170e-03  1.2269935545130514e-03  5.8251174262907643e-03  -1.2258538384296656e-02  1.7853381831387041e-02  -2.2519113568102520e-02  2.6272537486915569e-02  -2.9193834544274721e-02  3.1372704950916680e-02  -3.2858878836182305e-02  3.3629965289143714e-02  -3.3585143160177640e-02  3.2566626355483151e-02  -3.0403800647707886e-02  2.6969117683589634e-02  -2.2231688802786424e-02  1.6294825675051455e-02  -9.4075890395217115e-03  1.9469323569308054e-03  -1.5300690468007900e-03  7.4485480854327036e-03  -1.3457030858210400e-02  1.9536547067896426e-02  -2.5535315943662217e-02  3.1159559095993702e-02  -3.6004361435574582e-02  3.9618565407365747e-02  -4.1589087536308661e-02  4.1625051688755556e-02  -3.9621873739328184e-02  3.5689968343933856e-02  -3.0140997895613572e-02  2.3434544679017774e-02  -1.6097373906044536e-02  8.6338117645420077e-03  -1.4476586251726685e-03  -5.2069500492992922e-03  1.1235506221613829e-02  -1.6673292604600955e-02  2.1624818472988753e-02  -2.6189030681407006e-02  3.0390163005894668e-02  -3.4132571795005430e-02  3.7191880963846298e-02  -3.9245697645111183e-02  3.9937269120589633e-02  -3.8957138928335674e-02  3.6123157138329663e-02  -3.1439259863169193e-02  2.5118246048396489e-02  -1.7562202471525463e-02  9.3042144932077749e-03  -9.2414234122246606e-04  -7.0426629481609541e-03  1.4183270499641425e-02  -2.0254602539563522e-02  2.5190713900049348e-02  -2.9069943481377088e-02  3.2051606349024486e-02  -3.4299126861612038e-02  3.5909590749896816e-02  -3.6867882047855391e-02  3.7037308341941522e-02  -3.6189443399606648e-02  3.4066060194278422e-02  -3.0457904093993581e-02  2.5280643413772185e-02  -1.8628711983726239e-02  1.0792853727877314e-02  -2.2356068558488638e-03  1.1729083971637748e-03  -5.7274060370155694e-03  1.0517938606087353e-02  -1.5615516990051384e-02  2.0917398485960536e-02  -2.6132702393309729e-02  3.0818419685229831e-02  -3.4458343047043503e-02  3.6566769235614097e-02  -3.6792556570847741e-02  3.4998760536597479e-02  -3.1298717210508677e-02  2.6039716597568766e-02  -1.9737839469319042e-02  1.2979105884576084e-02  -6.3100094177672489e-03  1.4286204098148020e-04  5.3023972084331851e-03  -1.0007263746924717e-02  1.4113934928012785e-02  -1.7846239181047351e-02  2.1412963224869932e-02  -2.4918503814321119e-02  2.8303869373728308e-02  -3.1333518039082998e-02  3.3632177593900282e-02  -3.4763419621799324e-02  3.4331353522856149e-02  -3.2080909205688346e-02  2.7972225272573967e-02  -2.2210660169247425e-02  1.5224435452641511e-02  -7.5943851577921998e-03  -4.8311147500037458e-05  7.1329377900961818e-03  -1.3243173154410258e-02  1.8172894661932580e-02  -2.1931885841259550e-02  2.4701598923356320e-02  -2.6753160573877156e-02  2.8348836361416919e-02  -2.9652001820522054e-02  3.0668382406121270e-02  -3.1233488424801628e-02  3.1049680296468783e-02  -2.9763970166790461e-02  2.7067490151136544e-02  -2.2792014291400806e-02  1.6979360011730196e-02  -9.9058239296616855e-03  2.0544324526072556e-03  -4.3934618787568166e-04  2.1815814458225635e-03  -4.3543725079979159e-03  7.1588075013715134e-03  -1.0584065411477451e-02  1.4386836598895572e-02  -1.8129968410209717e-02  2.1271685136253323e-02  -2.3284330093593458e-02  2.3774257143939832e-02  -2.2574063469388832e-02  1.9784896853735939e-02  -1.5758508370577795e-02  1.1023179060438639e-02  -6.1711022320929164e-03  1.7340096533171021e-03  1.9234486574582418e-03  -4.6674768933556588e-03  6.6014379029868554e-03  -8.0140711198759297e-03  9.2831138924142943e-03  -1.0758628118088491e-02  1.2655213897718334e-02  -1.4980057566902410e-02  1.7514964929692806e-02  -1.9857301711467219e-02  2.1510324852069471e-02  -2.2001238554272641e-02  2.0998413275366667e-02  -1.8399236423727695e-02  1.4367020241315052e-02  -9.3075942010310934e-03  3.7906987276802931e-03  1.5654338949453329e-03  -6.2190951467382179e-03  9.8102457653118803e-03  -1.2221184461161888e-02  1.3578947545519653e-02  -1.4199764216120797e-02  1.4489904190488805e-02  -1.4827757309432107e-02  1.5456431116029803e-02  -1.6413470800041859e-02  1.7515149250248521e-02  -1.8399369701310432e-02  1.8616825799774365e-02  -1.7748188549183766e-02  1.5518595649116514e-02  -1.1881215845267558e-02  7.0490071809552590e-03  -1.4662328351002995e-03  -5.0764629432788286e-04  2.3999177045293547e-03  -3.6486377493553553e-03  3.9044093675035633e-03  -3.0625510944023134e-03  1.2899590906821192e-03  1.0141058722199317e-03  -3.3138350872135938e-03  5.0660848490526357e-03  -5.8516598012499409e-03  5.4768264349420682e-03  -4.0204346066075982e-03  1.8152023454727803e-03  6.3230388830458285e-04  -2.7636041115208232e-03  4.1025976468406344e-03  -4.3696704700660711e-03  3.5479756726501726e-03  -1.8858564498010599e-03  -1.6511655645236513e-04  2.0613999178786882e-03  -3.3009685899842113e-03  3.5465919454064051e-03  -2.7089324991545808e-03  9.6925605759979228e-04  1.2637918084734709e-03  -3.4528824936217260e-03  5.0622377505749206e-03  -5.6878042305101668e-03  5.1557727738124641e-03  -3.5655179402980615e-03  1.2665153310641281e-03  1.2252012744553074e-03  -3.3508132071827148e-03  4.6427327869814575e-03  -4.8363995909059248e-03  3.9327814650149734e-03  -2.1964756302053265e-03  8.9926156985086273e-05  1.8402232027806445e-03  -3.0970124979369678e-03  3.3547549369641536e-03  -2.5387897621736407e-03  8.4402110797882676e-04  1.3122718964874967e-03  -3.3919061302052468e-03  4.8669131243415107e-03  -5.3484718244272318e-03  4.6823314343257521e-03  -2.9875278193131926e-03  6.2895001969946870e-04  1.4496479950684140e-03  -6.9592872834828663e-03  1.1632550011670552e-02  -1.4982264677804474e-02  1.6790421902473436e-02  -1.7140423396183310e-02  1.6378709847817599e-02  -1.5015715433658604e-02  1.3590697858273534e-02  -1.2533641986832255e-02  1.2057994339062765e-02  -1.2110360908226977e-02  1.2389324057524862e-02  -1.2428607065939146e-02  1.1724058581579540e-02  -9.8731615825179923e-03  6.6926162053865170e-03  -2.2847738726274021e-03  -2.9639634175195983e-03  8.4531940325791137e-03  -1.3490844797515496e-02  1.7438899771433161e-02  -1.9847939711416036e-02  2.0548545495896603e-02  -1.9677999999401955e-02  1.7636306969861917e-02  -1.4982572922363949e-02  1.2297119794639993e-02  -1.0042868859470007e-02  8.4595571899353239e-03  -7.5162274381824004e-03  6.9331509745052811e-03  -6.2673644471487079e-03  5.0404483523343886e-03  -2.8768388414206563e-03  -3.8166495013939661e-04  4.6137946742022418e-03  -9.4250032540418374e-03  1.4221255550770069e-02  -1.8333276050851877e-02  2.1161790721205241e-02  -2.2309118428333764e-02  2.1665653326479475e-02  -1.9430604663463861e-02  1.6062160279842339e-02  -1.2169221447926678e-02  8.3708808123067347e-03  -5.1574927999729773e-03  2.7866579165851031e-03  -1.2388469658397895e-03  2.4279912277447695e-04  -2.1653592595099963e-03  1.0424690555082066e-02  -1.7713415141620899e-02  2.3445950010354016e-02  -2.7319181258054027e-02  2.9348252947189346e-02  -2.9829738768098770e-02  2.9242283356311675e-02  -2.8109779429351094e-02  2.6860998604241085e-02  -2.5720197303790642e-02  2.4655431163055179e-02  -2.3397023976772940e-02  2.1521338982254584e-02  -1.8578884326635712e-02  1.4234791523349624e-02  -8.3864850432642350e-03  1.2287244875434774e-03  6.7511560832970363e-03  -1.4848134564682803e-02  2.2267842833919110e-02  -2.8278706372221189e-02  3.2352371152988620e-02  -3.4259627986450908e-02  3.4099677879575879e-02  -3.2256551217169020e-02  2.9293935312965633e-02  -2.5814343866970939e-02  2.2316947404708080e-02  -1.9088423029466624e-02  1.6152894852645684e-02  -1.3292435117022975e-02  1.0132238088273453e-02  -6.2686754916020807e-03  1.4078718614603555e-03  4.5202387015691623e-03  -1.1301534137344435e-02  1.8447164672710039e-02  -2.5272028397495011e-02  3.1024615618073684e-02  -3.5037973922446196e-02  3.6866250850743257e-02  -3.6374558978147828e-02  3.3760992555387892e-02  -2.9505822500187469e-02  2.4260295718455699e-02  -1.8701837673705687e-02  1.3390337146772274e-02  -8.6596694143607645e-03  4.5698317084283515e-03  -9.3015174325253530e-04  2.4840430314129543e-03  -1.1969137126706213e-02  2.0437186064259906e-02  -2.7265585135325739e-02  3.2114402880081931e-02  -3.4963155211015694e-02  3.6075642700222496e-02  -3.5902779784068771e-02  3.4948147911536297e-02  -3.3629767711884993e-02  3.2172188339570883e-02  -3.0555306399669854e-02  2.8532218997817070e-02  -2.5711328523150723e-02  2.1682003653162085e-02  -1.6152239843178724e-02  9.0635945190104539e-03  -6.5397615636555626e-04  -8.5486395536306936e-03  1.7801822715803453e-02  -2.6277110646044492e-02  3.3211865020870791e-02  -3.8049425497779656e-02  4.0535104371301284e-02  -4.0746085280899423e-02  3.9049077931884814e-02  -3.5996826267180947e-02  3.2189082524457659e-02  -2.8131958706531859e-02  2.4129614187782995e-02  -2.0234061367024530e-02  1.6264448160309582e-02  -1.1890033318244191e-02  6.7553609648973428e-03  -6.1570115277671518e-04  -6.5518199940577098e-03  1.4490159609583967e-02  -2.2673283982529439e-02  3.0385212666695024e-02  -3.6849687654477103e-02  4.1380530764462561e-02  -4.3517522802214811e-02  4.3115893821092932e-02  -4.0368480650174669e-02  3.5755621940076025e-02  -2.9935067086410531e-02  2.3598388154533072e-02  -1.7328184810934396e-02  1.1489862480120721e-02  -6.1830951862715975e-03  1.2633536878155886e-03  -2.3268528249814130e-03  1.1210672414161566e-02  -1.9131813215766628e-02  2.5501970584529892e-02  -3.0001911689054212e-02  3.2616367667915619e-02  -3.3600364588147413e-02  3.3386460333159874e-02  -3.2456472399024258e-02  3.1209631156867708e-02  -2.9859675164183513e-02  2.8386065137801130e-02  -2.6551051925062970e-02  2.3978036121398632e-02  -2.0271485441101338e-02  1.5148318859725745e-02  -8.5476498927851419e-03  6.9082714085618975e-04  7.9243644341094894e-03  -1.6595600263047128e-02  2.4538260404823795e-02  -3.1030028544614775e-02  3.5544347546212711e-02  -3.7841796561919619e-02  3.7998477050065330e-02  -3.6365555596699503e-02  3.3470538583506480e-02  -2.9884708974555065e-02  2.6089048566526479e-02  -2.2371027605126041e-02  1.8776836676865319e-02  -1.5129888480124750e-02  1.1110071004222071e-02  -6.3732563352277474e-03  6.8061035595778278e-04  5.9952625425095992e-03  -1.3414771666882909e-02  2.1081564573098240e-02  -2.8317708984540363e-02  3.4387156694858617e-02  -3.8638954851882769e-02  4.0636680315852415e-02  -4.0243679920179985e-02  3.7644149210999518e-02  -3.3295351236258659e-02  2.7822680576664611e-02  -2.1882826316366014e-02  1.6027721112037072e-02  -1.0601483827945265e-02  5.6942875886183842e-03  -1.1630532278934062e-03  1.7260178157601956e-03  -8.3053104858954157e-03  1.4070709626768832e-02  -1.8534926910662629e-02  2.1453082616631997e-02  -2.2853027783735054e-02  2.3003038491649322e-02  -2.2325607809848699e-02  2.1278989524363946e-02  -2.0235793527184475e-02  1.9388446140460598e-02  -1.8704601485813498e-02  1.7943251382122528e-02  -1.6727336910178761e-02  1.4654750568422274e-02  -1.1420113993525620e-02  6.9169423842005652e-03  -1.2944276142839903e-03  -5.0460132063493042e-03  1.1514725104921970e-02  -1.7443966789214102e-02  2.2218642205408135e-02  -2.5396975699080268e-02  2.6792834461699184e-02  -2.6500588919296061e-02  2.4857180664032613e-02  -2.2351125332305679e-02  1.9500852570049399e-02  -1.6732011878249055e-02  1.4283415846688432e-02  -1.2164117897094186e-02  1.0171523704713904e-02  -7.9654345872371708e-03  5.1791920904740250e-03  -1.5399611747976892e-03  -3.0321251103650323e-03  8.3711588475906557e-03  -1.4072964579482190e-02  1.9562236922705853e-02  -2.4204088975369419e-02  2.7433916282131200e-02  -2.8874905678626401e-02  2.8415347914568480e-02  -2.6227485247391002e-02  2.2723607803289973e-02  -1.8460122366699791e-02  1.4012735012963724e-02  -9.8526774327087185e-03  6.2534620065139677e-03  -3.2500571139871819e-03  6.5950368835888452e-04  -8.1722637392492086e-04  3.9101448358613540e-03  -6.4079047102779388e-03  7.9727930352455258e-03  -8.4718846823429780e-03  8.0007314391769072e-03  -6.8526533595991267e-03  5.4413452167658494e-03  -4.1957942533908466e-03  3.4531753970152988e-03  -3.3758163238489969e-03  3.9124274980791894e-03  -4.8129800433319670e-03  5.6935411356173402e-03  -6.1351839993334717e-03  5.7927734389811407e-03  -4.4869808355712101e-03  2.2569109018391225e-03  6.3974579627949888e-04  -3.7794070115439713e-03  6.6656937636505728e-03  -8.8406701228531739e-03  9.9875559375162317e-03  -1.0000275892247331e-02  9.0032247273512112e-03  -7.3166568543521111e-03  5.3762549395511283e-03  -3.6264869197654790e-03  2.4136649828266307e-03  -1.9046231682673205e-03  2.0506558146605458e-03  -2.6053131547519540e-03  3.1915275747912068e-03  -3.4015307318540772e-03  2.9050183903580715e-03  -1.5389994232475068e-03  -6.4281198167567420e-04  3.3733893452095680e-03  -6.2280819790089398e-03  8.7194018282870135e-03  -1.0408193812899752e-02  1.1004460017433061e-02  -1.0433572794626925e-02  8.8519505294998371e-03  -6.6084793892794442e-03  4.1610634819687579e-03  -1.9685115340541386e-03  3.8389137098460423e-04  4.2493310900713227e-04  -5.0851395150211282e-04  1.1498456318480673e-04  -1.9295030634956486e-04  9.7444442112234000e-04  -2.0994303397683786e-03  3.7350089223584172e-03  -5.8889696819470292e-03  8.3938545439151014e-03  -1.0935265930194442e-02  1.3117975414542009e-02  -1.4554147490177180e-02  1.4952532457077698e-02  -1.4187155634960105e-02  1.2328903470330787e-02  -9.6323069502599352e-03  6.4805902443513643e-03  -3.3020844865205589e-03  4.7796370407986763e-04  1.7367137637667751e-03  -3.2599666931571927e-03  4.1869764423408040e-03  -4.7508546871718235e-03  5.2501751532345068e-03  -5.9614048226113003e-03  7.0580107713347764e-03  -8.5563526053882531e-03  1.0301905497334464e-02  -1.1999500977218304e-02  1.3280495928520493e-02  -1.3790726577068322e-02  1.3277955955436412e-02  -1.1657541670566037e-02  9.0402344888324861e-03  -5.7151073125065194e-03  2.0914224455167662e-03  1.3868804748460957e-03  -4.3337984205913177e-03  6.4990343389040878e-03  -7.8126017790555585e-03  8.3859998366581107e-03  -8.4702234225068201e-03  8.3813138572338651e-03  -8.4119909951712295e-03  8.7512102942862453e-03  -9.4314945174897961e-03  1.0317057867650293e-02  -1.1135740484941497e-02  1.1547040341519373e-02  -1.1229662172850870e-02  9.9671729318918292e-03  -7.7107053729162447e-03  4.6031451139810766e-03  -9.5850274132250367e-04  1.0767017535333494e-03  -5.2452540927818070e-03  9.5138404352653819e-03  -1.3888425254347464e-02  1.8265438201191832e-02  -2.2423656867907371e-02  2.6048702057819416e-02  -2.8785216018181101e-02  3.0304898796190954e-02  -3.0374522162225047e-02  2.8907820441024069e-02  -2.5988831546646135e-02  2.1860938961872262e-02  -1.6883947324873513e-02  1.1469047708257393e-02  -6.0066822032551065e-03  8.0385244175405833e-04  3.9550277840738916e-03  -8.2154612189989946e-03  1.2027898819756125e-02  -1.5497859772443626e-02  1.8724549954206193e-02  -2.1744116059600929e-02  2.4492439497370514e-02  -2.6797487589710099e-02  2.8403880860169303e-02  -2.9024314612266261e-02  2.8405718701351310e-02  -2.6394228467217559e-02  2.2983072782384276e-02  -1.8331396562665716e-02  1.2748849643904502e-02  -6.6488793146915158e-03  4.8107273259017454e-04  5.3421668984411684e-03  -1.0508058664488978e-02  1.4841153032912323e-02  -1.8308485274291058e-02  2.0992221437786483e-02  -2.3037664133793798e-02  2.4590345858382368e-02  -2.5738436059170009e-02  2.6475208243769748e-02  -2.6691238230929823e-02  2.6198551727145424e-02  -2.4780945055544672e-02  2.2258103430600269e-02  -1.8547556631701712e-02  1.3708802384774177e-02  -7.9580543235135345e-03  1.6490252958492749e-03  -1.6396595775334194e-03  7.9611200603240690e-03  -1.4183336877303356e-02  2.0187091436949859e-02  -2.5794299253434787e-02  3.0766839171201890e-02  -3.4825373292634118e-02  3.7684947221843672e-02  -3.9099845234572793e-02  3.8907660580787089e-02  -3.7062424436598664e-02  3.3648973871992886e-02  -2.8874960799684341e-02  2.3042003202750690e-02  -1.6502233064732363e-02  9.6097531842287420e-03  -2.6774996425012127e-03  -4.0515039610644092e-03  1.0413166360702608e-02  -1.6311163652049581e-02  2.1690074007850387e-02  -2.6501070705488197e-02  3.0670158722859314e-02  -3.4078176721689439e-02  3.6558733062215215e-02  -3.7915653534497440e-02  3.7956502148799962e-02  -3.6534528710234625e-02  3.3589029618040139e-02  -2.9174161992554279e-02  2.3468732574382728e-02  -1.6763785003219615e-02  9.4299298674493087e-03  -1.8710205046603939e-03  -5.5260918090380600e-03  1.2435192384495733e-02  -1.8618880666392962e-02  2.3936224464203553e-02  -2.8329765563329688e-02  3.1796670182276221e-02  -3.4352510281589969e-02  3.5997744612300299e-02  -3.6696065370886710e-02  3.6370614711582004e-02  -3.4919422773928323e-02  3.2246434604445894e-02  -2.8300376519073623e-02  2.3111493051356544e-02 