<?xml version="1.0"?>
<VTKFile type="UnstructuredGrid"  version="0.1"  >
<UnstructuredGrid>
<Piece  NumberOfPoints="2601" NumberOfCells="5000">
<Points>
<DataArray  type="Float64"  NumberOfComponents="3"  format="ascii">-10 -10 0  -9.6 -10 0  -9.199999999999999 -10 0  -8.800000000000001 -10 0  -8.4 -10 0  -8 -10 0  -7.6 -10 0  -7.2 -10 0  -6.8 -10 0  -6.4 -10 0  -6 -10 0  -5.6 -10 0  -5.2 -10 0  -4.8 -10 0  -4.4 -10 0  -4 -10 0  -3.6 -10 0  -3.2 -10 0  -2.8 -10 0  -2.4 -10 0  -2 -10 0  -1.6 -10 0  -1.199999999999999 -10 0  -0.8000000000000007 -10 0  -0.4000000000000004 -10 0  0 -10 0  0.4000000000000004 -10 0  0.8000000000000007 -10 0  1.199999999999999 -10 0  1.6 -10 0  2 -10 0  2.4 -10 0  2.800000000000001 -10 0  3.199999999999999 -10 0  3.6 -10 0  4 -10 0  4.4 -10 0  4.800000000000001 -10 0  5.199999999999999 -10 0  5.6 -10 0  6 -10 0  6.399999999999999 -10 0  6.800000000000001 -10 0  7.199999999999999 -10 0  7.600000000000001 -10 0  8 -10 0  8.399999999999999 -10 0  8.800000000000001 -10 0  9.199999999999999 -10 0  9.600000000000001 -10 0  10 -10 0  -10 -9.6 0  -9.6 -9.6 0  -9.199999999999999 -9.6 0  -8.800000000000001 -9.6 0  -8.4 -9.6 0  -8 -9.6 0  -7.6 -9.6 0  -7.2 -9.6 0  -6.8 -9.6 0  -6.4 -9.6 0  -6 -9.6 0  -5.6 -9.6 0  -5.2 -9.6 0  -4.8 -9.6 0  -4.4 -9.6 0  -4 -9.6 0  -3.6 -9.6 0  -3.2 -9.6 0  -2.8 -9.6 0  -2.4 -9.6 0  -2 -9.6 0  -1.6 -9.6 0  -1.199999999999999 -9.6 0  -0.8000000000000007 -9.6 0  -0.4000000000000004 -9.6 0  0 -9.6 0  0.4000000000000004 -9.6 0  0.8000000000000007 -9.6 0  1.199999999999999 -9.6 0  1.6 -9.6 0  2 -9.6 0  2.4 -9.6 0  2.800000000000001 -9.6 0  3.199999999999999 -9.6 0  3.6 -9.6 0  4 -9.6 0  4.4 -9.6 0  4.800000000000001 -9.6 0  5.199999999999999 -9.6 0  5.6 -9.6 0  6 -9.6 0  6.399999999999999 -9.6 0  6.800000000000001 -9.6 0  7.199999999999999 -9.6 0  7.600000000000001 -9.6 0  8 -9.6 0  8.399999999999999 -9.6 0  8.800000000000001 -9.6 0  9.199999999999999 -9.6 0  9.600000000000001 -9.6 0  10 -9.6 0  -10 -9.199999999999999 0  -9.6 -9.199999999999999 0  -9.199999999999999 -9.199999999999999 0  -8.800000000000001 -9.199999999999999 0  -8.4 -9.199999999999999 0  -8 -9.199999999999999 0  -7.6 -9.199999999999999 0  -7.2 -9.199999999999999 0  -6.8 -9.199999999999999 0  -6.4 -9.199999999999999 0  -6 -9.199999999999999 0  -5.6 -9.199999999999999 0  -5.2 -9.199999999999999 0  -4.8 -9.199999999999999 0  -4.4 -9.199999999999999 0  -4 -9.199999999999999 0  -3.6 -9.199999999999999 0  -3.2 -9.199999999999999 0  -2.8 -9.199999999999999 0  -2.4 -9.199999999999999 0  -2 -9.199999999999999 0  -1.6 -9.199999999999999 0  -1.199999999999999 -9.199999999999999 0  -0.8000000000000007 -9.199999999999999 0  -0.4000000000000004 -9.199999999999999 0  0 -9.199999999999999 0  0.4000000000000004 -9.199999999999999 0  0.8000000000000007 -9.199999999999999 0  1.199999999999999 -9.199999999999999 0  1.6 -9.199999999999999 0  2 -9.199999999999999 0  2.4 -9.199999999999999 0  2.800000000000001 -9.199999999999999 0  3.199999999999999 -9.199999999999999 0  3.6 -9.199999999999999 0  4 -9.199999999999999 0  4.4 -9.199999999999999 0  4.800000000000001 -9.199999999999999 0  5.199999999999999 -9.199999999999999 0  5.6 -9.199999999999999 0  6 -9.199999999999999 0  6.399999999999999 -9.199999999999999 0  6.800000000000001 -9.199999999999999 0  7.199999999999999 -9.199999999999999 0  7.600000000000001 -9.199999999999999 0  8 -9.199999999999999 0  8.399999999999999 -9.199999999999999 0  8.800000000000001 -9.199999999999999 0  9.199999999999999 -9.199999999999999 0  9.600000000000001 -9.199999999999999 0  10 -9.199999999999999 0  -10 -8.800000000000001 0  -9.6 -8.800000000000001 0  -9.199999999999999 -8.800000000000001 0  -8.800000000000001 -8.800000000000001 0  -8.4 -8.800000000000001 0  -8 -8.800000000000001 0  -7.6 -8.800000000000001 0  -7.2 -8.800000000000001 0  -6.8 -8.800000000000001 0  -6.4 -8.800000000000001 0  -6 -8.800000000000001 0  -5.6 -8.800000000000001 0  -5.2 -8.800000000000001 0  -4.8 -8.800000000000001 0  -4.4 -8.800000000000001 0  -4 -8.800000000000001 0  -3.6 -8.800000000000001 0  -3.2 -8.800000000000001 0  -2.8 -8.800000000000001 0  -2.4 -8.800000000000001 0  -2 -8.800000000000001 0  -1.6 -8.800000000000001 0  -1.199999999999999 -8.800000000000001 0  -0.8000000000000007 -8.800000000000001 0  -0.4000000000000004 -8.800000000000001 0  0 -8.800000000000001 0  0.4000000000000004 -8.800000000000001 0  0.8000000000000007 -8.800000000000001 0  1.199999999999999 -8.800000000000001 0  1.6 -8.800000000000001 0  2 -8.800000000000001 0  2.4 -8.800000000000001 0  2.800000000000001 -8.800000000000001 0  3.199999999999999 -8.800000000000001 0  3.6 -8.800000000000001 0  4 -8.800000000000001 0  4.4 -8.800000000000001 0  4.800000000000001 -8.800000000000001 0  5.199999999999999 -8.800000000000001 0  5.6 -8.800000000000001 0  6 -8.800000000000001 0  6.399999999999999 -8.800000000000001 0  6.800000000000001 -8.800000000000001 0  7.199999999999999 -8.800000000000001 0  7.600000000000001 -8.800000000000001 0  8 -8.800000000000001 0  8.399999999999999 -8.800000000000001 0  8.800000000000001 -8.800000000000001 0  9.199999999999999 -8.800000000000001 0  9.600000000000001 -8.800000000000001 0  10 -8.800000000000001 0  -10 -8.4 0  -9.6 -8.4 0  -9.199999999999999 -8.4 0  -8.800000000000001 -8.4 0  -8.4 -8.4 0  -8 -8.4 0  -7.6 -8.4 0  -7.2 -8.4 0  -6.8 -8.4 0  -6.4 -8.4 0  -6 -8.4 0  -5.6 -8.4 0  -5.2 -8.4 0  -4.8 -8.4 0  -4.4 -8.4 0  -4 -8.4 0  -3.6 -8.4 0  -3.2 -8.4 0  -2.8 -8.4 0  -2.4 -8.4 0  -2 -8.4 0  -1.6 -8.4 0  -1.199999999999999 -8.4 0  -0.8000000000000007 -8.4 0  -0.4000000000000004 -8.4 0  0 -8.4 0  0.4000000000000004 -8.4 0  0.8000000000000007 -8.4 0  1.199999999999999 -8.4 0  1.6 -8.4 0  2 -8.4 0  2.4 -8.4 0  2.800000000000001 -8.4 0  3.199999999999999 -8.4 0  3.6 -8.4 0  4 -8.4 0  4.4 -8.4 0  4.800000000000001 -8.4 0  5.199999999999999 -8.4 0  5.6 -8.4 0  6 -8.4 0  6.399999999999999 -8.4 0  6.800000000000001 -8.4 0  7.199999999999999 -8.4 0  7.600000000000001 -8.4 0  8 -8.4 0  8.399999999999999 -8.4 0  8.800000000000001 -8.4 0  9.199999999999999 -8.4 0  9.600000000000001 -8.4 0  10 -8.4 0  -10 -8 0  -9.6 -8 0  -9.199999999999999 -8 0  -8.800000000000001 -8 0  -8.4 -8 0  -8 -8 0  -7.6 -8 0  -7.2 -8 0  -6.8 -8 0  -6.4 -8 0  -6 -8 0  -5.6 -8 0  -5.2 -8 0  -4.8 -8 0  -4.4 -8 0  -4 -8 0  -3.6 -8 0  -3.2 -8 0  -2.8 -8 0  -2.4 -8 0  -2 -8 0  -1.6 -8 0  -1.199999999999999 -8 0  -0.8000000000000007 -8 0  -0.4000000000000004 -8 0  0 -8 0  0.4000000000000004 -8 0  0.8000000000000007 -8 0  1.199999999999999 -8 0  1.6 -8 0  2 -8 0  2.4 -8 0  2.800000000000001 -8 0  3.199999999999999 -8 0  3.6 -8 0  4 -8 0  4.4 -8 0  4.800000000000001 -8 0  5.199999999999999 -8 0  5.6 -8 0  6 -8 0  6.399999999999999 -8 0  6.800000000000001 -8 0  7.199999999999999 -8 0  7.600000000000001 -8 0  8 -8 0  8.399999999999999 -8 0  8.800000000000001 -8 0  9.199999999999999 -8 0  9.600000000000001 -8 0  10 -8 0  -10 -7.6 0  -9.6 -7.6 0  -9.199999999999999 -7.6 0  -8.800000000000001 -7.6 0  -8.4 -7.6 0  -8 -7.6 0  -7.6 -7.6 0  -7.2 -7.6 0  -6.8 -7.6 0  -6.4 -7.6 0  -6 -7.6 0  -5.6 -7.6 0  -5.2 -7.6 0  -4.8 -7.6 0  -4.4 -7.6 0  -4 -7.6 0  -3.6 -7.6 0  -3.2 -7.6 0  -2.8 -7.6 0  -2.4 -7.6 0  -2 -7.6 0  -1.6 -7.6 0  -1.199999999999999 -7.6 0  -0.8000000000000007 -7.6 0  -0.4000000000000004 -7.6 0  0 -7.6 0  0.4000000000000004 -7.6 0  0.8000000000000007 -7.6 0  1.199999999999999 -7.6 0  1.6 -7.6 0  2 -7.6 0  2.4 -7.6 0  2.800000000000001 -7.6 0  3.199999999999999 -7.6 0  3.6 -7.6 0  4 -7.6 0  4.4 -7.6 0  4.800000000000001 -7.6 0  5.199999999999999 -7.6 0  5.6 -7.6 0  6 -7.6 0  6.399999999999999 -7.6 0  6.800000000000001 -7.6 0  7.199999999999999 -7.6 0  7.600000000000001 -7.6 0  8 -7.6 0  8.399999999999999 -7.6 0  8.800000000000001 -7.6 0  9.199999999999999 -7.6 0  9.600000000000001 -7.6 0  10 -7.6 0  -10 -7.2 0  -9.6 -7.2 0  -9.199999999999999 -7.2 0  -8.800000000000001 -7.2 0  -8.4 -7.2 0  -8 -7.2 0  -7.6 -7.2 0  -7.2 -7.2 0  -6.8 -7.2 0  -6.4 -7.2 0  -6 -7.2 0  -5.6 -7.2 0  -5.2 -7.2 0  -4.8 -7.2 0  -4.4 -7.2 0  -4 -7.2 0  -3.6 -7.2 0  -3.2 -7.2 0  -2.8 -7.2 0  -2.4 -7.2 0  -2 -7.2 0  -1.6 -7.2 0  -1.199999999999999 -7.2 0  -0.8000000000000007 -7.2 0  -0.4000000000000004 -7.2 0  0 -7.2 0  0.4000000000000004 -7.2 0  0.8000000000000007 -7.2 0  1.199999999999999 -7.2 0  1.6 -7.2 0  2 -7.2 0  2.4 -7.2 0  2.800000000000001 -7.2 0  3.199999999999999 -7.2 0  3.6 -7.2 0  4 -7.2 0  4.4 -7.2 0  4.800000000000001 -7.2 0  5.199999999999999 -7.2 0  5.6 -7.2 0  6 -7.2 0  6.399999999999999 -7.2 0  6.800000000000001 -7.2 0  7.199999999999999 -7.2 0  7.600000000000001 -7.2 0  8 -7.2 0  8.399999999999999 -7.2 0  8.800000000000001 -7.2 0  9.199999999999999 -7.2 0  9.600000000000001 -7.2 0  10 -7.2 0  -10 -6.8 0  -9.6 -6.8 0  -9.199999999999999 -6.8 0  -8.800000000000001 -6.8 0  -8.4 -6.8 0  -8 -6.8 0  -7.6 -6.8 0  -7.2 -6.8 0  -6.8 -6.8 0  -6.4 -6.8 0  -6 -6.8 0  -5.6 -6.8 0  -5.2 -6.8 0  -4.8 -6.8 0  -4.4 -6.8 0  -4 -6.8 0  -3.6 -6.8 0  -3.2 -6.8 0  -2.8 -6.8 0  -2.4 -6.8 0  -2 -6.8 0  -1.6 -6.8 0  -1.199999999999999 -6.8 0  -0.8000000000000007 -6.8 0  -0.4000000000000004 -6.8 0  0 -6.8 0  0.4000000000000004 -6.8 0  0.8000000000000007 -6.8 0  1.199999999999999 -6.8 0  1.6 -6.8 0  2 -6.8 0  2.4 -6.8 0  2.800000000000001 -6.8 0  3.199999999999999 -6.8 0  3.6 -6.8 0  4 -6.8 0  4.4 -6.8 0  4.800000000000001 -6.8 0  5.199999999999999 -6.8 0  5.6 -6.8 0  6 -6.8 0  6.399999999999999 -6.8 0  6.800000000000001 -6.8 0  7.199999999999999 -6.8 0  7.600000000000001 -6.8 0  8 -6.8 0  8.399999999999999 -6.8 0  8.800000000000001 -6.8 0  9.199999999999999 -6.8 0  9.600000000000001 -6.8 0  10 -6.8 0  -10 -6.4 0  -9.6 -6.4 0  -9.199999999999999 -6.4 0  -8.800000000000001 -6.4 0  -8.4 -6.4 0  -8 -6.4 0  -7.6 -6.4 0  -7.2 -6.4 0  -6.8 -6.4 0  -6.4 -6.4 0  -6 -6.4 0  -5.6 -6.4 0  -5.2 -6.4 0  -4.8 -6.4 0  -4.4 -6.4 0  -4 -6.4 0  -3.6 -6.4 0  -3.2 -6.4 0  -2.8 -6.4 0  -2.4 -6.4 0  -2 -6.4 0  -1.6 -6.4 0  -1.199999999999999 -6.4 0  -0.8000000000000007 -6.4 0  -0.4000000000000004 -6.4 0  0 -6.4 0
[...]
<PointData  Scalars="f_489"> 
<DataArray  type="Float64"  Name="f_489"  format="ascii">9.1868080353837078e-05  -6.0895854948926490e-04  9.1060469295465554e-04  -9.1753007333432110e-04  5.8705346470708600e-04  5.2633597159336088e-05  -9.0355998696261858e-04  1.8147407087531929e-03  -2.6098532563362436e-03  3.1205306819028222e-03  -3.2190169731531283e-03  2.8440113656482561e-03  -2.0147537924658180e-03  8.3055832032374324e-04  5.4430889204172409e-04  -1.9077972066262692e-03  3.0544263036714732e-03  -3.8106239000852346e-03  4.0646344557519311e-03  -3.7855703976272391e-03  3.0281602152738936e-03  -1.9223701347199596e-03  6.4984657611752612e-04  5.8846671224599943e-04  -1.6075848166796124e-03  2.2701705135919049e-03  -2.5089130350756726e-03  2.3356222288482779e-03  -1.8355521812281057e-03  1.1482291261187075e-03  -4.3856251508034934e-04  -1.3619296399768703e-04  4.5731832194467677e-04  -4.6749559120357536e-04  1.8134575481577934e-04  3.1831820622812474e-04  -8.9775966136738461e-04  1.3997755834459582e-03  -1.6760613162293294e-03  1.6182571851631703e-03  -1.1816729292981937e-03  3.9704744143171988e-04  6.3206298083648665e-04  -1.7459721887028230e-03  2.7566743933291576e-03  -3.4817084281280842e-03  3.7778219790326382e-03  -3.5681324900730732e-03  2.8572459561623533e-03  -1.7266448629093022e-03  2.5633335077414749e-04  -6.3158232556208391e-04  3.0013417922756065e-03  -4.4743280893469722e-03  4.5285761299840880e-03  -2.9441378175783547e-03  -1.4448219550636989e-04  4.2633655088189027e-03  -8.6812314936032496e-03  1.2543592569088288e-02  -1.5034082885215367e-02  1.5532715451624456e-02  -1.3741162204306117e-02  9.7510786591209313e-03  -4.0419430109908039e-03  -2.5921101437380903e-03  9.1738081634293762e-03  -1.4709091456537458e-02  1.8358232548567301e-02  -1.9580671503428189e-02  1.8227264060663294e-02  -1.4563255713709969e-02  9.2179925340629375e-03  -3.0708043260650776e-03  -2.9058451515937547e-03  7.8171103383086471e-03  -1.0999208320597960e-02  1.2127748884670981e-02  -1.1261686881984440e-02  8.8157148653052637e-03  -5.4672715263941784e-03  2.0164846588869179e-03  7.7397021701583718e-04  -2.3285373445394619e-03  2.3695867975243182e-03  -9.6846674641272760e-04  -1.4726803687307843e-03  4.3046439297524872e-03  -6.7642511124765270e-03  8.1312724263707878e-03  -7.8789465291787750e-03  5.7890371030675895e-03  -2.0089134443386299e-03  -2.9610070956729664e-03  8.3480298611728291e-03  -1.3241866817176673e-02  1.6758674392944067e-02  -1.8204173958735498e-02  1.7205478606585077e-02  -1.3786780813540907e-02  8.3744429684686119e-03  -1.7347530004223966e-03  1.1708575427434957e-03  -5.5454207267586365e-03  8.3460458613464246e-03  -8.6540980957850403e-03  6.0745270538247291e-03  -8.2980039510123960e-04  -6.2658156081355689e-03  1.3948126863520715e-02  -2.0735278410767527e-02  2.5207308649747458e-02  -2.6280631330456192e-02  2.3425624522932224e-02  -1.6785768078493170e-02  7.1748401869278378e-03  4.0487795191722960e-03  -1.5208852621840073e-02  2.4598393433893726e-02  -3.0775145191465385e-02  3.2811688484640208e-02  -3.0454673152125970e-02  2.4164304016121841e-02  -1.5027189886554193e-02  4.5589016139055251e-03  5.5672370552149819e-03  -1.3815219359800009e-02  1.9051269903573746e-02  -2.0730495637844071e-02  1.8971968292792289e-02  -1.4509863537012993e-02  8.5314170141544254e-03  -2.4334859462968035e-03  -2.4554984375788264e-03  5.1352186448887930e-03  -5.1256017052924143e-03  2.5551947619536297e-03  1.8706356676311915e-03  -7.0152642211433816e-03  1.1542099434321790e-02  -1.4187257110141318e-02  1.4021285153312487e-02  -1.0649497651389539e-02  4.3118672269735923e-03  4.1377841763120139e-03  -1.3370890054336426e-02  2.1816818952060998e-02  -2.7946637620914962e-02  3.0555567462912492e-02  -2.8991598110958694e-02  2.3287412515272870e-02  -1.4170652837122885e-02  2.9505187120701022e-03  -1.7465401019207130e-03  8.2867970384113265e-03  -1.2638446014945643e-02  1.3518879185678625e-02  -1.0362081898537592e-02  3.4489758689060916e-03  6.1260928357977796e-03  -1.6647584745548276e-02  2.6094589818704033e-02  -3.2521573213964323e-02  3.4432757491982505e-02  -3.1079567662794693e-02  2.2624492274940233e-02  -1.0139288370770128e-02  -4.5638933299425423e-03  1.9238858925218372e-02  -3.1593977740661319e-02  3.9692392062904092e-02  -4.2290821541723381e-02  3.9055118351409832e-02  -3.0613352333982095e-02  1.8437088595616949e-02  -4.5731101353261982e-03  -8.7247288473509942e-03  1.9395656670402800e-02  -2.5930712836257527e-02  2.7624687341999101e-02  -2.4676070317732765e-02  1.8118306451858492e-02  -9.5971380946553390e-03  1.0374319995210398e-03  5.7367177726106609e-03  -9.3564282151525884e-03  9.1699852266124340e-03  -5.3630239098195831e-03  -1.0854107510296378e-03  8.6021508191257475e-03  -1.5336319971035363e-02  1.9532410351998278e-02  -1.9888680619220118e-02  1.5832082461882228e-02  -7.6564289376694584e-03  -3.5039092562507571e-03  1.5861627959179551e-02  -2.7291895419769743e-02  3.5717787279698716e-02  -3.9494495789462826e-02  3.7720822007669200e-02  -3.0419560315437279e-02  1.8552398364121755e-02  -3.8652438081807324e-03  2.3468781014513327e-03  -1.1159599088329015e-02  1.7264590672117532e-02  -1.9064853348757248e-02  1.5833577380911505e-02  -7.8739122247049528e-03  -3.5191554746761846e-03  1.6288796414798065e-02  -2.7995988061061766e-02  3.6278214974525713e-02  -3.9301388093267664e-02  3.6119949824519354e-02  -2.6876855788035208e-02  1.2804654375567416e-02  3.9742447409786708e-03  -2.0812700126028424e-02  3.5003118733462554e-02  -4.4256059068211548e-02  4.7105466952142031e-02  -4.3166263717016325e-02  3.3197189207151159e-02  -1.8957727980644240e-02  2.8859129399607633e-03  1.2343233616439620e-02  -2.4297028665376186e-02  3.1213984635632030e-02  -3.2303691748874874e-02  2.7863529209881485e-02  -1.9192316928831377e-02  8.3189244252724111e-03  2.4017189523089788e-03  -1.0748246419386044e-02  1.5061074823035255e-02  -1.4558454682327356e-02  9.4809655080160798e-03  -1.0375709586045471e-03  -8.8361397465878382e-03  1.7861405455834086e-02  -2.3868498201777819e-02  2.5231615398596436e-02  -2.1203436693512871e-02  1.2084980930168715e-02  8.0281435718888221e-04  -1.5342196444327601e-02  2.8996183856630969e-02  -3.9271243959413879e-02  4.4179369019813314e-02  -4.2613507931783430e-02  3.4566007473328123e-02  -2.1148537240711550e-02  4.4085306650736194e-03  -2.9315828806606185e-03  1.3969780018085970e-02  -2.1909560645885427e-02  2.4909550611072639e-02  -2.2102804960477625e-02  1.3777566625183372e-02  -1.3379793055866783e-03  -1.2948793047612131e-02  2.6372397122223428e-02  -3.6287909232283970e-02  4.0618131213178241e-02  -3.8255275593566930e-02  2.9286195681470388e-02  -1.4997985881426801e-02  -2.3384407836029839e-03  1.9867862825124132e-02  -3.4660277170462821e-02  4.4236771445992217e-02  -4.7014876319057035e-02  4.2591333081735454e-02  -3.1810270390759926e-02  1.6604499626657294e-02  3.6037549964096534e-04  -1.6172904393093636e-02  2.8203546213643731e-02  -3.4575689854552026e-02  3.4493232481261481e-02  -2.8364966991677516e-02  1.7704049334442935e-02  -4.8228037642660199e-03  -7.6187635789722518e-03  1.7125241467045034e-02  -2.1842285257812743e-02  2.0907683081156061e-02  -1.4611179932904042e-02  4.3332938024615592e-03  7.7250180576560728e-03  -1.8970602239245730e-02  2.6923250067960175e-02  -2.9702143105345680e-02  2.6401353117984656e-02  -1.7282797814806950e-02  3.7491649184656899e-03  1.1899486907523890e-02  -2.6881149259695692e-02  3.8442620253154904e-02  -4.4370779547517523e-02  4.3409106752323512e-02  -3.5501475552511104e-02  2.1817126562965521e-02  -4.5512305461278208e-03  3.4370359419632706e-03  -1.6410404632453465e-02  2.6055311982666529e-02  -3.0377232237371012e-02  2.8403543743577776e-02  -2.0375313930479963e-02  7.7101480988669823e-03  7.2574431731554871e-03  -2.1709998197348118e-02  3.2874485125592566e-02  -3.8544574264314437e-02  3.7500022205836918e-02  -2.9744420404528269e-02  1.6516311169890861e-02  -7.0872349505485109e-05  -1.6727872264487798e-02  3.0929004358656326e-02  -4.0034174486282249e-02  4.2454575308765140e-02  -3.7800700097797436e-02  2.6951217121715970e-02  -1.1888338497017287e-02  -4.6695475862311734e-03  1.9769567808181045e-02  -3.0767082482926495e-02  3.5808643434561728e-02  -3.4165698577157851e-02  2.6357505054261487e-02  -1.4041111253359450e-02  -3.1024765442065681e-04  1.3879553332093940e-02  -2.4040360285514140e-02  2.8852833771383434e-02  -2.7428517795983699e-02  2.0095578089614062e-02  -8.3337098819439293e-03  -5.5089022782053689e-03  1.8663317703394987e-02  -2.8468108479459395e-02  3.2878850394881323e-02  -3.0862946437769691e-02  2.2605269116479452e-02  -9.4854397737549785e-03  -6.1697405030724899e-03  2.1513109228000593e-02  -3.3703996935870950e-02  4.0437056009867585e-02  -4.0374431553225079e-02  3.3400484431062229e-02  -2.0651200817270256e-02  4.3123135030590145e-03  -3.7855633341593049e-03  1.8105636930368287e-02  -2.9055865932535889e-02  3.4599429077929053e-02  -3.3707695350735867e-02  2.6551862321912336e-02  -1.4470711899755448e-02  -2.7948238823685342e-04  1.4946199161385280e-02  -2.6794427227513115e-02  3.3617037148474881e-02  -3.4146505611702245e-02  2.8291153541708046e-02  -1.7151821661970316e-02  2.8158971191063467e-03  1.2032830174900861e-02  -2.4615624030393468e-02  3.2577935250236847e-02  -3.4429278498089175e-02  2.9821719109971379e-02  -1.9614968370705570e-02  5.7159260540700233e-03  9.2773786740783220e-03  -2.2560977397675167e-02  3.1648699694509605e-02  -3.4836671649139804e-02  3.1521840571349005e-02  -2.2315040148117998e-02  8.9274578736556476e-03  6.1483339276900955e-03  -2.0103267734975921e-02  3.0335836519242362e-02  -3.4937507634701555e-02  3.3048896134365603e-02  -2.5020213662697868e-02  1.2346041300550996e-02  2.6134082876712976e-03  -1.7072522766257297e-02  2.8339859267093665e-02  -3.4320088246759098e-02  3.3904642172648894e-02  -2.7178174917101477e-02  1.5402322339693573e-02  -7.7982108191714612e-04  -1.3956959575452534e-02  2.6056245855135909e-02  -3.3260589622743301e-02  3.4228199177241646e-02  -2.8783219940341581e-02  1.7948255756494443e-02  -3.7530819219842014e-03  3.8989316864091630e-03  -1.8676021780077410e-02  3.0250019015218527e-02  -3.6667676873564196e-02  3.6908071467367590e-02  -3.1062276150875187e-02  2.0307991224501869e-02  -6.6843818352693447e-03  -7.2905218021587425e-03  1.9088319118367326e-02  -2.6637272522149775e-02  2.8701000986303366e-02  -2.5098638627348596e-02  1.6726015928556413e-02  -5.3746832660701753e-03  -6.6165930633696546e-03  1.6811942149992338e-02  -2.3145250485733362e-02  2.4315878131915859e-02  -2.0038741519548396e-02  1.1101630432292823e-02  7.8119256630385537e-04  -1.3291823316095030e-02  2.3947541189810927e-02  -3.0573334857653137e-02  3.1719362089694558e-02  -2.6944711718613592e-02  1.6913688918583806e-02  -3.2857886580998732e-03  -1.1580965350757699e-02  2.5058747253869057e-02  -3.4731393463037802e-02  3.8839290787281669e-02  -3.6605016379556973e-02  2.8379116128140296e-02  -1.5578767486328322e-02  4.3052453482535257e-04  1.4435282697908674e-02  -2.6463398361939148e-02  3.3637101145705284e-02  -3.4840592663927201e-02  3.0053532754215982e-02  -2.0342254469208849e-02  7.6500729048173217e-03  5.5735145007798637e-03  -1.6835020980402359e-02  2.4063975847049269e-02  -2.5997466763953109e-02  2.2410558049247541e-02  -1.4149898287474327e-02  2.9647659680362925e-03  -3.7137678670664124e-03  1.7813210560436839e-02  -2.9090998539970971e-02  3.5810502939630201e-02  -3.7032275540043270e-02  3.2770025299257759e-02  -2.3973172940068947e-02  1.2340154438671860e-02  2.0917944245418712e-06  -1.0892414055684649e-02  1.8530077951090306e-02  -2.1796615424994552e-02  2.0445692365093183e-02  -1.5126716856569392e-02  7.2391577532832582e-03  1.3537259677090820e-03  -8.6967666086040073e-03  1.3129479677918800e-02  -1.3613869272764466e-02  9.9411569176142741e-03  -2.7780445521376927e-03  -6.4565738861227101e-03  1.5861509549152528e-02  -2.3419095273357327e-02  2.7387961019174720e-02  -2.6648455552285403e-02  2.0934979195279240e-02  -1.0910422337568466e-02  -1.9327175945766739e-03  1.5527615160288662e-02  -2.7598573487203383e-02  3.6069693318315492e-02  -3.9441461622468650e-02  3.7065633232012750e-02  -2.9267402537525744e-02  1.7291987033098397e-02  -3.0851448062078355e-03  -1.1052201071777039e-02  2.2871859265841281e-02  -3.0573975499379416e-02  3.3117979995552341e-02  -3.0392373295489706e-02  2.3213161833147079e-02  -1.3152613568368015e-02  2.2314649533964406e-03  7.4670839602351234e-03  -1.4188986959340549e-02  1.6833309645717089e-02  -1.5148266354487796e-02  9.7633266826078254e-03  -2.0523173223652566e-03  3.1959893424619735e-03  -1.5349956445122916e-02  2.5268473466024656e-02  -3.1561168037536814e-02  3.3447306807752201e-02  -3.0877277122575156e-02  2.4523223606527166e-02  -1.5641733795631822e-02  5.8349335756452654e-03  3.2451452222408863e-03  -1.0193951368286880e-02  1.4098719886676183e-02  -1.4685192486688549e-02  1.2340821291077022e-02  -8.0118489261412473e-03  2.9953581396298138e-03  1.3329620036605205e-03  -3.8026626350412792e-03  3.6893438543950342e-03  -8.6609810706446118e-04  -4.1636800249333604e-03  1.0358805159542616e-02  -1.6340954441255287e-02  2.0665620811928787e-02  -2.2111946277625860e-02  1.9936088637316215e-02  -1.4039255975776790e-02  5.0172462825081032e-03  5.9196725644994688e-03  -1.7143501667290291e-02  2.6886941961739356e-02  -3.3553108280730701e-02  3.5999957367062303e-02  -3.3747175789797822e-02  2.7067294038973198e-02  -1.6943928724187044e-02  4.9043872307760325e-03  7.2431180023192904e-03  -1.7719964118524858e-02  2.5079027148013838e-02  -2.8443499558788159e-02  2.7639966583673178e-02  -2.3202780331208140e-02  1.6250642220449817e-02  -8.2598876432983560e-03  7.7789766931971851e-04  4.8691876949779707e-03  -7.8196795153325956e-03  7.8253411758348497e-03  -5.2790964965747939e-03  1.1174204421641647e-03  -2.3513939740868648e-03  1.1311553300757695e-02  -1.8798917893236337e-02  2.3883385991766613e-02  -2.6015273082230402e-02  2.5103324372439454e-02  -2.1512864430322850e-02  1.5985591152922224e-02  -9.4967256390576620e-03  3.0764525639365064e-03  2.3712322819144679e-03  -6.2191387984374133e-03  8.2099638443858727e-03  -8.4759403390077068e-03  7.4831314941162198e-03  -5.9126793370129381e-03  4.5031285939707497e-03  -3.8851390337371465e-03  4.4411274712414760e-03  -6.2174355409808733e-03  8.9064316934274433e-03  -1.1902457707452088e-02  1.4421269650043813e-02  -1.5660283906671457e-02  1.4968863889063266e-02  -1.1995598491795668e-02  6.7834895242325438e-03  2.0654331243414364e-04  -8.1501690317072901e-03  1.5983933641270799e-02  -2.2577949551554451e-02  2.6926341631682199e-02  -2.8321159290616099e-02  2.6478143295215681e-02  -2.1591262129012238e-02  1.4305746820873865e-02  -5.6140880774960900e-03  -3.3066028325549920e-03  1.1286903060140000e-02  -1.7352845884552805e-02  2.0875977215251390e-02  -2.1659641177453556e-02  1.9947302227130270e-02  -1.6353094544190684e-02  1.1729043682515620e-02  -6.9948630254350296e-03  2.9627851825757665e-03  -1.9034191416758488e-04  -1.1116956517211074e-03  1.0997714138667499e-03  -2.4373968035083476e-04  1.2301728082057684e-03  -5.9378721997156696e-03  1.0065461374793685e-02  -1.3229177639534148e-02  1.5168830681953044e-02  -1.5776028055062851e-02  1.5098788593040454e-02  -1.3322646285348266e-02  1.0732380064405009e-02  -7.6617383502330079e-03  4.4403625594697620e-03  -1.3472510416245758e-03  -1.4214749894533728e-03  3.7657078400736167e-03  -5.6743834369820294e-03  7.2012868794381745e-03  -8.4297644474978593e-03  9.4344839021029154e-03  -1.0248777091759628e-02  1.0844814058665492e-02  -1.1131148037030957e-02  1.0968560934340565e-02  -1.0201328402721801e-02  8.6977439413968589e-03  -6.3916332694838639e-03  3.3160661826605229e-03  3.7834240985442567e-04  -4.4254659664944122e-03  8.4672618686345170e-03  -1.2096131486086632e-02  1.4909645622184343e-02  -1.6568733533620233e-02  1.6849518161663767e-02  -1.5679824569686161e-02  1.3153872355605552e-02  -9.5223322909593240e-03  5.1591336594768288e-03  -5.1037958610441710e-04  -3.9662458793634451e-03  7.8616638780897776e-03  -1.0865498464734145e-02  1.2798351910544178e-02  -1.3621811060368716e-02  1.3425763751112828e-02  -1.2396615346650900e-02  1.0773263551339261e-02  -8.7996176270971217e-03  6.6827055422909003e-03  -4.5639642859938122e-03  2.5084623018815340e-03  -5.1310240780420412e-04  7.5841095579069922e-05  -3.2976481627529217e-04  2.0285485340116425e-04  5.1491310403198006e-04  -1.8892095567540907e-03  3.8167980296942095e-03  -6.0353686152462916e-03  8.1665022153536541e-03  -9.7841160465474732e-03  1.0495745338611088e-02  -1.0021381134769245e-02  8.2548029056819950e-03  -5.2953991716542222e-03  1.4437977264215023e-03  2.8387520327529201e-03  -7.0006137653853846e-03  1.0487484489412228e-02  -1.2832161315391844e-02  1.3730442437538329e-02  -1.3089690142854766e-02  1.1041498337168026e-02  -7.9163844183764206e-03  4.1852776773052451e-03  -3.7853081315383861e-04  -3.0028523416234429e-03  5.5678321050058209e-03  -7.0935365295773023e-03  7.5511023046605230e-03  -7.0952981904129370e-03  6.0208420930551263e-03  -4.6944752310254280e-03  3.4762706595553800e-03  -2.6454928454662770e-03  2.3452765439045593e-03  -2.5566451458241429e-03  3.1066741314629957e-03  -3.7089887020704663e-03  4.0285324182723530e-03  -3.7578169723274978e-03  2.6895786395526922e-03  -7.7133934738831073e-04  -1.8692892290286289e-03  4.9342363127926432e-03  -7.9986122056211993e-03  1.0580953159095283e-02  -1.2227514963377191e-02  1.2595227162720853e-02  -1.1517928588085232e-02  9.0433887172791366e-03  -5.4338325090025940e-03  1.1292902138754141e-03  -1.4430819903873062e-03  6.8963718875643433e-03  -1.1011670590936350e-02  1.2983706055127114e-02  -1.2412696371290902e-02  9.3809268917775853e-03  -4.4388837907817910e-03  -1.4965583945111235e-03  7.3129472307288442e-03  -1.1910195998416376e-02  1.4406823948843919e-02  -1.4305940327958427e-02  1.1589897985860735e-02  -6.7258311197962699e-03  5.8090653178678763e-04  5.7370418583208242e-03  -1.1083899253258757e-02  1.4490673604637344e-02  -1.5342583577159747e-02  1.3492513922601361e-02  -9.2877388551614575e-03  3.5049727817454356e-03  2.7941204008933105e-03  -8.4600154535730658e-03  1.2468288932408636e-02  -1.4108801343903908e-02  1.3115911758865544e-02  -9.7155607593655408e-03  4.5805915498310498e-03  1.2971999581621429e-03  -6.7942522099295579e-03  1.0866596771396534e-02  -1.2745832498775929e-02  1.2083066985198145e-02  -9.0139247276523164e-03  4.1324961805708459e-03  1.6208647112490012e-03  -7.1368683761283518e-03  1.1346531300035894e-02  -1.3423139040318695e-02  1.2939082979015533e-02  -9.9481395566951934e-03  4.9776827745977017e-03  1.0678544886285495e-03  -7.0743672802787037e-03  1.1925157681891315e-02  -1.4709104952465527e-02  1.4891087746547358e-02  -1.2412824203183306e-02  7.7052494039161453e-03  -1.6100266127885938e-03  2.7319133826344375e-03  -1.3088958142899433e-02  2.1230122283084098e-02  -2.5802188515181457e-02  2.6093932430973060e-02  -2.2160127232141898e-02  1.4804590368676627e-02  -5.4258501759780597e-03  -4.2454925379084053e-03  1.2468582693193408e-02  -1.7813310232502662e-02  1.9420812649327154e-02  -1.7155249982773020e-02  1.1619046669715581e-02  -4.0293795697076444e-03  -4.0203503648495991e-03  1.0868839048991363e-02  -1.5106766592493215e-02  1.5847935748923240e-02  -1.2900550678371326e-02  6.8063059605214639e-03  1.2602150333226973e-03  -9.7130810680769869e-03  1.6855999766395516e-02  -2.1206256246821677e-02  2.1780688500474862e-02  -1.8289746659813224e-02  1.1202767113866552e-02  -1.6715833418174311e-03  -8.6739536644624051e-03  1.8021026474847913e-02  -2.4704959844727637e-02  2.7515029137784846e-02  -2.5918187424121240e-02  2.0159090297106840e-02  -1.1217714079346968e-02  6.3227898099238488e-04  9.7798302210238310e-03  -1.8251544690726273e-02  2.3385093199494202e-02  -2.4401610002304532e-02  2.1275474082438656e-02  -1.4728981500994089e-02  6.0889719422466708e-03  2.9673048808740174e-03  -1.0729244477079866e-02  1.5773438515449947e-02  -1.7227807461699305e-02