<?xml version="1.0"?>
<VTKFile type="UnstructuredGrid"  version="0.1"  >
<UnstructuredGrid>
<Piece  NumberOfPoints="2601" NumberOfCells="5000">
<Points>
<DataArray  type="Float64"  NumberOfComponents="3"  format="ascii">-10 -10 0  -9.6 -10 0  -9.199999999999999 -10 0  -8.800000000000001 -10 0  -8.4 -10 0  -8 -10 0  -7.6 -10 0  -7.2 -10 0  -6.8 -10 0  -6.4 -10 0  -6 -10 0  -5.6 -10 0  -5.2 -10 0  -4.8 -10 0  -4.4 -10 0  -4 -10 0  -3.6 -10 0  -3.2 -10 0  -2.8 -10 0  -2.4 -10 0  -2 -10 0  -1.6 -10 0  -1.199999999999999 -10 0  -0.8000000000000007 -10 0  -0.4000000000000004 -10 0  0 -10 0  0.4000000000000004 -10 0  0.8000000000000007 -10 0  1.199999999999999 -10 0  1.6 -10 0  2 -10 0  2.4 -10 0  2.800000000000001 -10 0  3.199999999999999 -10 0  3.6 -10 0  4 -10 0  4.4 -10 0  4.800000000000001 -10 0  5.199999999999999 -10 0  5.6 -10 0  6 -10 0  6.399999999999999 -10 0  6.800000000000001 -10 0  7.199999999999999 -10 0  7.600000000000001 -10 0  8 -10 0  8.399999999999999 -10 0  8.800000000000001 -10 0  9.199999999999999 -10 0  9.600000000000001 -10 0  10 -10 0  -10 -9.6 0  -9.6 -9.6 0  -9.199999999999999 -9.6 0  -8.800000000000001 -9.6 0  -8.4 -9.6 0  -8 -9.6 0  -7.6 -9.6 0  -7.2 -9.6 0  -6.8 -9.6 0  -6.4 -9.6 0  -6 -9.6 0  -5.6 -9.6 0  -5.2 -9.6 0  -4.8 -9.6 0  -4.4 -9.6 0  -4 -9.6 0  -3.6 -9.6 0  -3.2 -9.6 0  -2.8 -9.6 0  -2.4 -9.6 0  -2 -9.6 0  -1.6 -9.6 0  -1.199999999999999 -9.6 0  -0.8000000000000007 -9.6 0  -0.4000000000000004 -9.6 0  0 -9.6 0  0.4000000000000004 -9.6 0  0.8000000000000007 -9.6 0  1.199999999999999 -9.6 0  1.6 -9.6 0  2 -9.6 0  2.4 -9.6 0  2.800000000000001 -9.6 0  3.199999999999999 -9.6 0  3.6 -9.6 0  4 -9.6 0  4.4 -9.6 0  4.800000000000001 -9.6 0  5.199999999999999 -9.6 0  5.6 -9.6 0  6 -9.6 0  6.399999999999999 -9.6 0  6.800000000000001 -9.6 0  7.199999999999999 -9.6 0  7.600000000000001 -9.6 0  8 -9.6 0  8.399999999999999 -9.6 0  8.800000000000001 -9.6 0  9.199999999999999 -9.6 0  9.600000000000001 -9.6 0  10 -9.6 0  -10 -9.199999999999999 0  -9.6 -9.199999999999999 0  -9.199999999999999 -9.199999999999999 0  -8.800000000000001 -9.199999999999999 0  -8.4 -9.199999999999999 0  -8 -9.199999999999999 0  -7.6 -9.199999999999999 0  -7.2 -9.199999999999999 0  -6.8 -9.199999999999999 0  -6.4 -9.199999999999999 0  -6 -9.199999999999999 0  -5.6 -9.199999999999999 0  -5.2 -9.199999999999999 0  -4.8 -9.199999999999999 0  -4.4 -9.199999999999999 0  -4 -9.199999999999999 0  -3.6 -9.199999999999999 0  -3.2 -9.199999999999999 0  -2.8 -9.199999999999999 0  -2.4 -9.199999999999999 0  -2 -9.199999999999999 0  -1.6 -9.199999999999999 0  -1.199999999999999 -9.199999999999999 0  -0.8000000000000007 -9.199999999999999 0  -0.4000000000000004 -9.199999999999999 0  0 -9.199999999999999 0  0.4000000000000004 -9.199999999999999 0  0.8000000000000007 -9.199999999999999 0  1.199999999999999 -9.199999999999999 0  1.6 -9.199999999999999 0  2 -9.199999999999999 0  2.4 -9.199999999999999 0  2.800000000000001 -9.199999999999999 0  3.199999999999999 -9.199999999999999 0  3.6 -9.199999999999999 0  4 -9.199999999999999 0  4.4 -9.199999999999999 0  4.800000000000001 -9.199999999999999 0  5.199999999999999 -9.199999999999999 0  5.6 -9.199999999999999 0  6 -9.199999999999999 0  6.399999999999999 -9.199999999999999 0  6.800000000000001 -9.199999999999999 0  7.199999999999999 -9.199999999999999 0  7.600000000000001 -9.199999999999999 0  8 -9.199999999999999 0  8.399999999999999 -9.199999999999999 0  8.800000000000001 -9.199999999999999 0  9.199999999999999 -9.199999999999999 0  9.600000000000001 -9.199999999999999 0  10 -9.199999999999999 0  -10 -8.800000000000001 0  -9.6 -8.800000000000001 0  -9.199999999999999 -8.800000000000001 0  -8.800000000000001 -8.800000000000001 0  -8.4 -8.800000000000001 0  -8 -8.800000000000001 0  -7.6 -8.800000000000001 0  -7.2 -8.800000000000001 0  -6.8 -8.800000000000001 0  -6.4 -8.800000000000001 0  -6 -8.800000000000001 0  -5.6 -8.800000000000001 0  -5.2 -8.800000000000001 0  -4.8 -8.800000000000001 0  -4.4 -8.800000000000001 0  -4 -8.800000000000001 0  -3.6 -8.800000000000001 0  -3.2 -8.800000000000001 0  -2.8 -8.800000000000001 0  -2.4 -8.800000000000001 0  -2 -8.800000000000001 0  -1.6 -8.800000000000001 0  -1.199999999999999 -8.800000000000001 0  -0.8000000000000007 -8.800000000000001 0  -0.4000000000000004 -8.800000000000001 0  0 -8.800000000000001 0  0.4000000000000004 -8.800000000000001 0  0.8000000000000007 -8.800000000000001 0  1.199999999999999 -8.800000000000001 0  1.6 -8.800000000000001 0  2 -8.800000000000001 0  2.4 -8.800000000000001 0  2.800000000000001 -8.800000000000001 0  3.199999999999999 -8.800000000000001 0  3.6 -8.800000000000001 0  4 -8.800000000000001 0  4.4 -8.800000000000001 0  4.800000000000001 -8.800000000000001 0  5.199999999999999 -8.800000000000001 0  5.6 -8.800000000000001 0  6 -8.800000000000001 0  6.399999999999999 -8.800000000000001 0  6.800000000000001 -8.800000000000001 0  7.199999999999999 -8.800000000000001 0  7.600000000000001 -8.800000000000001 0  8 -8.800000000000001 0  8.399999999999999 -8.800000000000001 0  8.800000000000001 -8.800000000000001 0  9.199999999999999 -8.800000000000001 0  9.600000000000001 -8.800000000000001 0  10 -8.800000000000001 0  -10 -8.4 0  -9.6 -8.4 0  -9.199999999999999 -8.4 0  -8.800000000000001 -8.4 0  -8.4 -8.4 0  -8 -8.4 0  -7.6 -8.4 0  -7.2 -8.4 0  -6.8 -8.4 0  -6.4 -8.4 0  -6 -8.4 0  -5.6 -8.4 0  -5.2 -8.4 0  -4.8 -8.4 0  -4.4 -8.4 0  -4 -8.4 0  -3.6 -8.4 0  -3.2 -8.4 0  -2.8 -8.4 0  -2.4 -8.4 0  -2 -8.4 0  -1.6 -8.4 0  -1.199999999999999 -8.4 0  -0.8000000000000007 -8.4 0  -0.4000000000000004 -8.4 0  0 -8.4 0  0.4000000000000004 -8.4 0  0.8000000000000007 -8.4 0  1.199999999999999 -8.4 0  1.6 -8.4 0  2 -8.4 0  2.4 -8.4 0  2.800000000000001 -8.4 0  3.199999999999999 -8.4 0  3.6 -8.4 0  4 -8.4 0  4.4 -8.4 0  4.800000000000001 -8.4 0  5.199999999999999 -8.4 0  5.6 -8.4 0  6 -8.4 0  6.399999999999999 -8.4 0  6.800000000000001 -8.4 0  7.199999999999999 -8.4 0  7.600000000000001 -8.4 0  8 -8.4 0  8.399999999999999 -8.4 0  8.800000000000001 -8.4 0  9.199999999999999 -8.4 0  9.600000000000001 -8.4 0  10 -8.4 0  -10 -8 0  -9.6 -8 0  -9.199999999999999 -8 0  -8.800000000000001 -8 0  -8.4 -8 0  -8 -8 0  -7.6 -8 0  -7.2 -8 0  -6.8 -8 0  -6.4 -8 0  -6 -8 0  -5.6 -8 0  -5.2 -8 0  -4.8 -8 0  -4.4 -8 0  -4 -8 0  -3.6 -8 0  -3.2 -8 0  -2.8 -8 0  -2.4 -8 0  -2 -8 0  -1.6 -8 0  -1.199999999999999 -8 0  -0.8000000000000007 -8 0  -0.4000000000000004 -8 0  0 -8 0  0.4000000000000004 -8 0  0.8000000000000007 -8 0  1.199999999999999 -8 0  1.6 -8 0  2 -8 0  2.4 -8 0  2.800000000000001 -8 0  3.199999999999999 -8 0  3.6 -8 0  4 -8 0  4.4 -8 0  4.800000000000001 -8 0  5.199999999999999 -8 0  5.6 -8 0  6 -8 0  6.399999999999999 -8 0  6.800000000000001 -8 0  7.199999999999999 -8 0  7.600000000000001 -8 0  8 -8 0  8.399999999999999 -8 0  8.800000000000001 -8 0  9.199999999999999 -8 0  9.600000000000001 -8 0  10 -8 0  -10 -7.6 0  -9.6 -7.6 0  -9.199999999999999 -7.6 0  -8.800000000000001 -7.6 0  -8.4 -7.6 0  -8 -7.6 0  -7.6 -7.6 0  -7.2 -7.6 0  -6.8 -7.6 0  -6.4 -7.6 0  -6 -7.6 0  -5.6 -7.6 0  -5.2 -7.6 0  -4.8 -7.6 0  -4.4 -7.6 0  -4 -7.6 0  -3.6 -7.6 0  -3.2 -7.6 0  -2.8 -7.6 0  -2.4 -7.6 0  -2 -7.6 0  -1.6 -7.6 0  -1.199999999999999 -7.6 0  -0.8000000000000007 -7.6 0  -0.4000000000000004 -7.6 0  0 -7.6 0  0.4000000000000004 -7.6 0  0.8000000000000007 -7.6 0  1.199999999999999 -7.6 0  1.6 -7.6 0  2 -7.6 0  2.4 -7.6 0  2.800000000000001 -7.6 0  3.199999999999999 -7.6 0  3.6 -7.6 0  4 -7.6 0  4.4 -7.6 0  4.800000000000001 -7.6 0  5.199999999999999 -7.6 0  5.6 -7.6 0  6 -7.6 0  6.399999999999999 -7.6 0  6.800000000000001 -7.6 0  7.199999999999999 -7.6 0  7.600000000000001 -7.6 0  8 -7.6 0  8.399999999999999 -7.6 0  8.800000000000001 -7.6 0  9.199999999999999 -7.6 0  9.600000000000001 -7.6 0  10 -7.6 0  -10 -7.2 0  -9.6 -7.2 0  -9.199999999999999 -7.2 0  -8.800000000000001 -7.2 0  -8.4 -7.2 0  -8 -7.2 0  -7.6 -7.2 0  -7.2 -7.2 0  -6.8 -7.2 0  -6.4 -7.2 0  -6 -7.2 0  -5.6 -7.2 0  -5.2 -7.2 0  -4.8 -7.2 0  -4.4 -7.2 0  -4 -7.2 0  -3.6 -7.2 0  -3.2 -7.2 0  -2.8 -7.2 0  -2.4 -7.2 0  -2 -7.2 0  -1.6 -7.2 0  -1.199999999999999 -7.2 0  -0.8000000000000007 -7.2 0  -0.4000000000000004 -7.2 0  0 -7.2 0  0.4000000000000004 -7.2 0  0.8000000000000007 -7.2 0  1.199999999999999 -7.2 0  1.6 -7.2 0  2 -7.2 0  2.4 -7.2 0  2.800000000000001 -7.2 0  3.199999999999999 -7.2 0  3.6 -7.2 0  4 -7.2 0  4.4 -7.2 0  4.800000000000001 -7.2 0  5.199999999999999 -7.2 0  5.6 -7.2 0  6 -7.2 0  6.399999999999999 -7.2 0  6.800000000000001 -7.2 0  7.199999999999999 -7.2 0  7.600000000000001 -7.2 0  8 -7.2 0  8.399999999999999 -7.2 0  8.800000000000001 -7.2 0  9.199999999999999 -7.2 0  9.600000000000001 -7.2 0  10 -7.2 0  -10 -6.8 0  -9.6 -6.8 0  -9.199999999999999 -6.8 0  -8.800000000000001 -6.8 0  -8.4 -6.8 0  -8 -6.8 0  -7.6 -6.8 0  -7.2 -6.8 0  -6.8 -6.8 0  -6.4 -6.8 0  -6 -6.8 0  -5.6 -6.8 0  -5.2 -6.8 0  -4.8 -6.8 0  -4.4 -6.8 0  -4 -6.8 0  -3.6 -6.8 0  -3.2 -6.8 0  -2.8 -6.8 0  -2.4 -6.8 0  -2 -6.8 0  -1.6 -6.8 0  -1.199999999999999 -6.8 0  -0.8000000000000007 -6.8 0  -0.4000000000000004 -6.8 0  0 -6.8 0  0.4000000000000004 -6.8 0  0.8000000000000007 -6.8 0  1.199999999999999 -6.8 0  1.6 -6.8 0  2 -6.8 0  2.4 -6.8 0  2.800000000000001 -6.8 0  3.199999999999999 -6.8 0  3.6 -6.8 0  4 -6.8 0  4.4 -6.8 0  4.800000000000001 -6.8 0  5.199999999999999 -6.8 0  5.6 -6.8 0  6 -6.8 0  6.399999999999999 -6.8 0  6.800000000000001 -6.8 0  7.199999999999999 -6.8 0  7.600000000000001 -6.8 0  8 -6.8 0  8.399999999999999 -6.8 0  8.800000000000001 -6.8 0  9.199999999999999 -6.8 0  9.600000000000001 -6.8 0  10 -6.8 0  -10 -6.4 0  -9.6 -6.4 0  -9.199999999999999 -6.4 0  -8.800000000000001 -6.4 0  -8.4 -6.4 0  -8 -6.4 0  -7.6 -6.4 0  -7.2 -6.4 0  -6.8 -6.4 0  -6.4 -6.4 0  -6 -6.4 0  -5.6 -6.4 0  -5.2 -6.4 0  -4.8 -6.4 0  -4.4 -6.4 0  -4 -6.4 0  -3.6 -6.4 0  -3.2 -6.4 0  -2.8 -6.4 0  -2.4 -6.4 0  -2 -6.4 0  -1.6 -6.4 0  -1.199999999999999 -6.4 0  -0.8000000000000007 -6.4 0  -0.4000000000000004 -6.4 0  0 -6.4 0
[...]
<PointData  Scalars="f_71"> 
<DataArray  type="Float64"  Name="f_71"  format="ascii">-2.8532134255235839e-05  1.9867486369744465e-04  -3.5589896986322641e-04  5.0636371772306481e-04  -6.4844329053962628e-04  7.8007796424766750e-04  -8.9945898806585451e-04  1.0051373650199690e-03  -1.0960710774366746e-03  1.1716514068234537e-03  -1.2317145981905141e-03  1.2765390767431428e-03  -1.3068250776497930e-03  1.3236630202481127e-03  -1.3284866131515829e-03  1.3230152839033759e-03  -1.3091877716730660e-03  1.2890873300794533e-03  -1.2648634470591182e-03  1.2386517275492072e-03  -1.2124944247228369e-03  1.1882652675403824e-03  -1.1676005177491402e-03  1.1518396633656224e-03  -1.1419753053224955e-03  1.1386186451946383e-03  -1.1419753687409574e-03  1.1518396214230335e-03  -1.1676006673499255e-03  1.1882653062888411e-03  -1.2124945373547965e-03  1.2386518815226772e-03  -1.2648636433531765e-03  1.2890875246465540e-03  -1.3091878891069012e-03  1.3230154349494012e-03  -1.3284866197791493e-03  1.3236631375446090e-03  -1.3068252840816134e-03  1.2765392252565850e-03  -1.2317147043595183e-03  1.1716513924660802e-03  -1.0960711966472604e-03  1.0051373531760820e-03  -8.9945874849620122e-04  7.8007778865047501e-04  -6.4844304940598696e-04  5.0636360613339751e-04  -3.5589883286004249e-04  1.9867473261570348e-04  -2.8532077438554268e-05  1.9857247713358519e-04  -9.9216468893127555e-04  1.7691370599515800e-03  -2.5164657088844913e-03  3.2224094993526073e-03  -3.8764064830785036e-03  4.4694276476902719e-03  -4.9942619387517793e-03  5.4457246757836208e-03  -5.8207904090007674e-03  6.1186498038225522e-03  -6.3406912893898644e-03  6.4904071914407358e-03  -6.5732298778527045e-03  6.5963014526208025e-03  -6.5681871277855058e-03  6.4985417329232499e-03  -6.3977407609932492e-03  6.2764888620276682e-03  -6.1454210257575722e-03  6.0147070657260143e-03  -5.8936778187464499e-03  5.7904822534872421e-03  -5.7117893744627977e-03  5.6625439187088736e-03  -5.6457867542861785e-03  5.6625440800491724e-03  -5.7117895916821530e-03  5.7904826504521579e-03  -5.8936781538163150e-03  6.0147073345858905e-03  -6.1454216364335229e-03  6.2764897228288954e-03  -6.3977415545340552e-03  6.4985424864838336e-03  -6.5681878693155905e-03  6.5963019328780497e-03  -6.5732305279066882e-03  6.4904079098357225e-03  -6.3406919051357848e-03  6.1186501400998516e-03  -5.8207905632989866e-03  5.4457247640128485e-03  -4.9942614536115761e-03  4.4694269654916982e-03  -3.8764056954948044e-03  3.2224085957096990e-03  -2.5164652248495403e-03  1.7691366822988035e-03  -9.9216441693813140e-04  1.9857240151177172e-04  -3.5467901653259793e-04  1.7639777375831917e-03  -3.1437316169034128e-03  4.4708193526895998e-03  -5.7239399226518108e-03  6.8840847061098637e-03  -7.9350666895316516e-03  8.8639834040757006e-03  -9.6615748272958248e-03  1.0322457977377356e-02  -1.0845228215252498e-02  1.1232423472613030e-02  -1.1490358181322168e-02  1.1628826676032922e-02  -1.1660690447841418e-02  1.1601363470274861e-02  -1.1468213181290623e-02  1.1279897710989653e-02  -1.1055663492891464e-02  1.0814628153131424e-02  -1.0575072187404846e-02  1.0353765656224763e-02  -1.0165353698252874e-02  1.0021821284164456e-02  -9.9320545509742654e-03  9.9015177227406524e-03  -9.9320548143340855e-03  1.0021821880975239e-02  -1.0165354366634937e-02  1.0353766208691998e-02  -1.0575072737106526e-02  1.0814629322438894e-02  -1.1055664847083356e-02  1.1279899133346297e-02  -1.1468214345549368e-02  1.1601364576786889e-02  -1.1660691322766188e-02  1.1628827595449883e-02  -1.1490359452929314e-02  1.1232424665058003e-02  -1.0845228919380598e-02  1.0322458529542850e-02  -9.6615747710955824e-03  8.8639829282116424e-03  -7.9350659920612229e-03  6.8840837636295936e-03  -5.7239386895569780e-03  4.4708185527892914e-03  -3.1437308274317815e-03  1.7639771255985705e-03  -3.5467885453981476e-04  5.0223930376637569e-04  -2.4972472095688169e-03  4.4496467562343050e-03  -6.3265705662519899e-03  8.0975062367294893e-03  -9.7352059548295473e-03  1.1216484229860751e-02  -1.2522887378058522e-02  1.3641204097239634e-02  -1.4563800848569529e-02  1.5288764497943728e-02  -1.5819854177727622e-02  1.6166257369387892e-02  -1.6342165039489261e-02  1.6366177123804768e-02  -1.6260560309762938e-02  1.6050386596084071e-02  -1.5762578837588498e-02  1.5424900100653952e-02  -1.5064920641662937e-02  1.4708998763110274e-02  -1.4381311916050807e-02  1.4102971841639857e-02  -1.3891253747299310e-02  1.3758965908052418e-02  -1.3713984109331990e-02  1.3758966152061390e-02  -1.3891254331794955e-02  1.4102972405262672e-02  -1.4381312330002012e-02  1.4708999546389536e-02  -1.5064922098651054e-02  1.5424901950378897e-02  -1.5762580821035727e-02  1.6050388026811087e-02  -1.6260561660356884e-02  1.6366178266774146e-02  -1.6342166289523504e-02  1.6166258662596075e-02  -1.5819855436928886e-02  1.5288765141677110e-02  -1.4563801026963745e-02  1.3641203901584589e-02  -1.2522886523186293e-02  1.1216483082345892e-02  -9.7352045761989487e-03  8.0975050060121574e-03  -6.3265694371903332e-03  4.4496457265522640e-03  -2.4972465514759906e-03  5.0223908956578515e-04  -6.3892516889251416e-04  3.1767336329437956e-03  -5.6592846759121827e-03  8.0441094406090742e-03  -1.0291751951670522e-02  1.2366977344560350e-02  -1.4239829773209204e-02  1.5886504263390257e-02  -1.7290014668155714e-02  1.8440625979147786e-02  -1.9336041873833150e-02  1.9981338308139841e-02  -2.0388648082710230e-02  2.0576605323593330e-02  -2.0569571694380111e-02  2.0396670106144474e-02  -2.0090662736817515e-02  1.9686709029156823e-02  -1.9221049627779159e-02  1.8729662420807560e-02  -1.8246935000509820e-02  1.7804404446274243e-02  -1.7429605161978473e-02  1.7145065176814207e-02  -1.6967486344912623e-02  1.6907138454682474e-02  -1.6967486755233980e-02  1.7145065815983178e-02  -1.7429605816160324e-02  1.7804405082620111e-02  -1.8246935942824553e-02  1.8729663990311004e-02  -1.9221051653327586e-02  1.9686710971244852e-02  -2.0090664283028303e-02  2.0396671666784411e-02  -2.0569573063928225e-02  2.0576606600143928e-02  -2.0388649324164315e-02  1.9981339441962058e-02  -1.9336042316488559e-02  1.8440625855065774e-02  -1.7290014023212268e-02  1.5886503060399994e-02  -1.4239828050798355e-02  1.2366975490946203e-02  -1.0291749890194497e-02  8.0441079350124581e-03  -5.6592834174410194e-03  3.1767328754702855e-03  -6.3892498056259696e-04  7.6207133568269737e-04  -3.7888580601335110e-03  6.7482053529761320e-03  -9.5883352066292778e-03  1.2261160816722532e-02  -1.4723767017565717e-02  1.6939707177928472e-02  -1.8880079693080865e-02  2.0524344144175408e-02  -2.1860853761795106e-02  2.2887083037298625e-02  -2.3609545765683380e-02  2.4043406463633409e-02  -2.4211797042061049e-02  2.4144865799044068e-02  -2.3878591323650746e-02  2.3453402623057989e-02  -2.2912654388047300e-02  2.2301011188632574e-02  -2.1662795128054437e-02  2.1040357545795474e-02  -2.0472530458500608e-02  1.9993211138310995e-02  -1.9630130126476894e-02  1.9403844899485573e-02  -1.9326995185163627e-02  1.9403845398212247e-02  -1.9630130853034739e-02  1.9993211762793478e-02  -2.0472531139294734e-02  2.1040358388648362e-02  -2.1662796421418103e-02  2.2301012867510926e-02  -2.2912656088060555e-02  2.3453404035563258e-02  -2.3878592641964343e-02  2.4144867161193306e-02  -2.4211798109446816e-02  2.4043407525385037e-02  -2.3609546757214002e-02  2.2887083301149816e-02  -2.1860853296171066e-02  2.0524342885686175e-02  -1.8880077872119351e-02  1.6939705032503572e-02  -1.4723764387361483e-02  1.2261158403727695e-02  -9.5883330221841305e-03  6.7482036809298181e-03  -3.7888571438375179e-03  7.6207113144306912e-04  -8.6938382738743476e-04  4.3221748685768197e-03  -7.6958681533277114e-03  1.0929762939491900e-02  -1.3967518760532007e-02  1.6758897286109638e-02  -1.9261293694658468e-02  2.1441007517001773e-02  -2.3274205922087565e-02  2.4747551005084086e-02  -2.5858468031234594e-02  2.6615046580508107e-02  -2.7035579567970525e-02  2.7147755385846815e-02  -2.6987531667345424e-02  2.6597733074209262e-02  -2.6026420035488829e-02  2.5325085688783115e-02  -2.4546745122142520e-02  2.3743983169028333e-02  -2.2967029192724038e-02  2.2261925964018412e-02  -2.1668857766078742e-02  2.1220693018839280e-02  -2.0941795905190096e-02  2.0847145628390965e-02  -2.0941796335609417e-02  2.1220693542614098e-02  -2.1668858317026193e-02  2.2261926540558492e-02  -2.2967029848597480e-02  2.3743984216266729e-02  -2.4546746438868450e-02  2.5325087104571639e-02  -2.6026421318900587e-02  2.6597734224901359e-02  -2.6987532829293105e-02  2.7147756402140011e-02  -2.7035580525214382e-02  2.6615047162229497e-02  -2.5858468136653930e-02  2.4747550276155349e-02  -2.3274204596591068e-02  2.1441005588858565e-02  -1.9261291211858357e-02  1.6758894396988737e-02  -1.3967516088426245e-02  1.0929760417676557e-02  -7.6958662018785486e-03  4.3221738915228602e-03  -8.6938360486225668e-04  9.5906950430104277e-04  -4.7677575793766986e-03  8.4862747798948104e-03  -1.2045449541079100e-02  1.5381119261733380e-02  -1.8436129701316591e-02  2.1162092873771316e-02  -2.3520845718007694e-02  2.5485555969953867e-02  -2.7041441474367260e-02  2.8186075902966685e-02  -2.8929274151227584e-02  2.9292559644136202e-02  -2.9308232768134830e-02  2.9018075891579967e-02  -2.8471739066952616e-02  2.7724860879443758e-02  -2.6836996287076927e-02  2.5869416877729447e-02  -2.4882865429752345e-02  2.3935341464342924e-02  -2.3079994449030687e-02  2.2363200845359088e-02  -2.1822887255089587e-02  2.1487164158864383e-02  -2.1373313220861001e-02  2.1487164568818950e-02  -2.1822887823314291e-02  2.2363201501063561e-02  -2.3079995267807428e-02  2.3935342295565442e-02  -2.4882866572165423e-02  2.5869418123498775e-02  -2.6836997420297961e-02  2.7724861970523616e-02  -2.8471739950452206e-02  2.9018076863234866e-02  -2.9308233481787391e-02  2.9292560339096330e-02  -2.8929274775799832e-02  2.8186075899263419e-02  -2.7041440811797574e-02  2.5485554790983782e-02  -2.3520843838795522e-02  2.1162090450737719e-02  -1.8436126934611084e-02  1.5381116428662238e-02  -1.2045446836617997e-02  8.4862726946384644e-03  -4.7677563571821985e-03  9.5906938380017188e-04  -1.0298974165588698e-03  5.1194792415284324e-03  -9.1084603024749120e-03  1.2919696508072877e-02  -1.6481680661846642e-02  1.9730789730311400e-02  -2.2613263083155033e-02  2.5086841209408010e-02  -2.7122009560521416e-02  2.8702805668237210e-02  -2.9827160950530972e-02  3.0506769161516081e-02  -3.0766483590268838e-02  3.0643266459838399e-02  -3.0184726980247503e-02  2.9447300601136983e-02  -2.8494131760721561e-02  2.7392736198604991e-02  -2.6212523069610826e-02  2.5022262788207923e-02  -2.3887592532243131e-02  2.2868641605551483e-02  -2.2017862816560374e-02  2.1378145417503554e-02  -2.0981273827951008e-02  2.0846786339595601e-02  -2.0981274245875127e-02  2.1378146218457225e-02  -2.2017863776677100e-02  2.2868642692788467e-02  -2.3887593801976626e-02  2.5022263954712028e-02  -2.6212524167041673e-02  2.7392737017099666e-02  -2.8494132184797041e-02  2.9447300964273747e-02  -3.0184727506958577e-02  3.0643267079465138e-02  -3.0766484212753020e-02  3.0506769514679490e-02  -2.9827161002247152e-02  2.8702805177294542e-02  -2.7122008688411178e-02  2.5086839551128635e-02  -2.2613260697429083e-02  1.9730786913807950e-02  -1.6481677784021685e-02  1.2919693924522880e-02  -9.1084582379913695e-03  5.1194781516372342e-03  -1.0298973475041441e-03  1.0812347843307366e-03  -5.3741940381912346e-03  9.5568112747427408e-03  -1.3544506152915307e-02  1.7258937711381029e-02  -2.0630493295761072e-02  2.3600475315102364e-02  -2.6122915330548023e-02  2.8165948747200041e-02  -2.9712706138082978e-02  3.0761689269571221e-02  -3.1326621778535520e-02  3.1435778511437341e-02  -3.1130817974982190e-02  3.0465159579888060e-02  -2.9501962909635488e-02  2.8311779114366418e-02  -2.6969956949576775e-02  2.5553894480159631e-02  -2.4140231823094944e-02  2.2802083649413017e-02  -2.1606406157533904e-02  2.0611592392218610e-02  -1.9865379572787265e-02  1.9403139964782906e-02  -1.9246615275879800e-02  1.9403140407975274e-02  -1.9865380564804379e-02  2.0611593503789993e-02  -2.1606407361420076e-02  2.2802085010680987e-02  -2.4140232964910122e-02  2.5553895256867999e-02  -2.6969957422989081e-02  2.8311779362450482e-02  -2.9501963186810892e-02  3.0465159879916569e-02  -3.1130818297900022e-02  3.1435778963561929e-02  -3.1326622037992004e-02  3.0761689323259421e-02  -2.9712705905507009e-02  2.8165948104566518e-02  -2.6122914049308697e-02  2.3600473266988890e-02  -2.0630490637404870e-02  1.7258934913316277e-02  -1.3544503473224364e-02  9.5568093635328543e-03  -5.3741929185258924e-03  1.0812346326474240e-03  -1.1130629785402473e-03  5.5318119641480402e-03  -9.8311997992595861e-03  1.3919772038642426e-02  -1.7712890296904881e-02  2.1135450261193574e-02  -2.4124270801152811e-02  2.6630073276492743e-02  -2.8618982002644559e-02  3.0073495119655146e-02  -3.0992892727456572e-02  3.1393068902964200e-02  -3.1305796210881233e-02  3.0777443946901826e-02  -2.9867200836553972e-02  2.8644861335663900e-02  -2.7188253520298314e-02  2.5580399776152545e-02  -2.3906506531981467e-02  2.2250893570361963e-02  -2.0693962686467577e-02  1.9309317385180432e-02  -1.8161130539727496e-02  1.7301853689112912e-02  -1.6770346161501873e-02  1.6590491726995865e-02  -1.6770346885999182e-02  1.7301854674476487e-02  -1.8161132009917629e-02  1.9309318843053772e-02  -2.0693963931661834e-02  2.2250894513450633e-02  -2.3906507183777299e-02  2.5580400022094676e-02  -2.7188253930613131e-02  2.8644861644490302e-02  -2.9867201139692524e-02  3.0777444144943572e-02  -3.1305796318201323e-02  3.1393068939391644e-02  -3.0992892614670444e-02  3.0073495213142846e-02  -2.8618981844858525e-02  2.6630072443343245e-02  -2.4124269176848668e-02  2.1135447821429058e-02  -1.7712887628684188e-02  1.3919769608401111e-02  -9.8311978804708645e-03  5.5318106938571756e-03  -1.1130627684303254e-03  1.1259706546090991e-03  -5.5952673820581673e-03  9.9369275053291153e-03  -1.4053200035433285e-02  1.7853698078567647e-02  -2.1258335588373100e-02  2.4199907557862495e-02  -2.6626226642885137e-02  2.8501742663059989e-02  -2.9808588443279632e-02  3.0547017581320206e-02  -3.0735218949231313e-02  3.0408516012697211e-02  -2.9617977233792288e-02  2.8428489846331367e-02  -2.6916360511805647e-02  2.5166530494841133e-02  -2.3269499326928518e-02  2.1318066970387413e-02  -1.9404007220465921e-02  1.7614786858562610e-02  -1.6030447310321549e-02  1.4720755066090059e-02  -1.3742721532867094e-02  1.3138578485584473e-02  -1.2934279454523332e-02  1.3138578868203219e-02  -1.3742722375208101e-02  1.4720756192946634e-02  -1.6030448538476759e-02  1.7614787854551422e-02  -1.9404008018841710e-02  2.1318067627753089e-02  -2.3269499608318797e-02  2.5166530801074831e-02  -2.6916360825565366e-02  2.8428489870024422e-02  -2.9617977018186553e-02  3.0408515563115458e-02  -3.0735218604617996e-02  3.0547017406505630e-02  -2.9808588565059607e-02  2.8501742466653445e-02  -2.6626226045654823e-02  2.4199906274577639e-02  -2.1258333505157712e-02  1.7853695647177408e-02  -1.4053197613639873e-02  9.9369255501305324e-03  -5.5952662113309968e-03  1.1259704286729175e-03  -1.1211275049098439e-03  5.5703865800169165e-03  -9.8844856623382590e-03  1.3959959990697978e-02  -1.7701228073387427e-02  2.1023732189367626e-02  -2.3856700974358304e-02  2.6145433267434032e-02  -2.7853030355442517e-02  2.8961512000926216e-02  -2.9472280939038059e-02  2.9405919512227534e-02  -2.8801327813077395e-02  2.7714229865236369e-02  -2.6215104545338371e-02  2.4386611510823684e-02  -2.2320601621625684e-02  2.0114816794848483e-02  -1.7869395176755152e-02  1.5683302663412842e-02  -1.3650813928752691e-02  1.1858168172336789e-02  -1.0380512075089682e-02  9.2792415567182762e-03  -8.5998287428647961e-03  8.3702163197570765e-03  -8.5998290244202209e-03  9.2792421129181471e-03  -1.0380513076548194e-02  1.1858169082560930e-02  -1.3650814675767085e-02  1.5683303273576411e-02  -1.7869395585328747e-02  2.0114816960724941e-02  -2.2320601779107302e-02  2.4386611637142591e-02  -2.6215104374677618e-02  2.7714229465049464e-02  -2.8801327160574580e-02  2.9405918946332217e-02  -2.9472280641059796e-02  2.8961511800282856e-02  -2.7853030117430427e-02  2.6145432725222854e-02  -2.3856699785928658e-02  2.1023730770385267e-02  -1.7701226159474188e-02  1.3959958141748378e-02  -9.8844839536008661e-03  5.5703854400137526e-03  -1.1211272934266931e-03  1.1002368839795572e-03  -5.4656536369438761e-03  9.6891352589788537e-03  -1.3662083658898899e-02  1.7284269087440154e-02  -2.0467165940027007e-02  2.3136881749962729e-02  -2.5236582968323876e-02  2.6728329898934079e-02  -2.7594258163412096e-02  2.7837068650491400e-02  -2.7479806176232770e-02  2.6564938152840990e-02  -2.5152763027658693e-02  2.3319205906347729e-02  -2.1153077151240304e-02  1.8752891484829677e-02  -1.6223355957205546e-02  1.3671650573391619e-02  -1.1203631740539011e-02  8.9200884064565989e-03  -6.9131838146038998e-03  5.2632050160358219e-03  -4.0357327423265060e-03  3.2793324370305257e-03  -3.0238441195557728e-03  3.2793325351060040e-03  -4.0357331571013958e-03  5.2632055024965634e-03  -6.9131845204540680e-03  8.9200889714477396e-03  -1.1203632116576582e-02  1.3671650674610462e-02  -1.6223355758944964e-02  1.8752891168485997e-02  -2.1153076629428506e-02  2.3319205245233059e-02  -2.5152762449862677e-02  2.6564937524067196e-02  -2.7479805650150381e-02  2.7837068460948477e-02  -2.7594258249644510e-02  2.6728329817668216e-02  -2.5236582800370694e-02  2.3136880964539835e-02  -2.0467164864256111e-02  1.7284267736527175e-02  -1.3662082250611119e-02  9.6891340511558247e-03  -5.4656527811545539e-03  1.1002366466992975e-03  -1.0654710036210396e-03  5.2918862232546474e-03  -9.3703255413336555e-03  1.3187624730007593e-02  -1.6639440517982114e-02  1.9633764728895321e-02  -2.2094012394016094e-02  2.3961576032283514e-02  -2.5197756684059026e-02  2.5785006912206240e-02  -2.5727441728476848e-02  2.5050600776764978e-02  -2.3800471191051456e-02  2.2041802692347623e-02  -1.9855776599581210e-02  1.7337108392569803e-02  -1.4590685396801355e-02  1.1727857149870000e-02  -8.8625055084444668e-03  6.1070347130260097e-03  -3.5684162269042224e-03  1.3444309157601489e-03  4.7976404691408778e-04  -1.8346239847804521e-03  2.6686555342484986e-03  -2.9502226287368150e-03  2.6686553529688857e-03  -1.8346235706249818e-03  4.7976346232563895e-04  1.3444314073335177e-03  -3.5684161269062108e-03  6.1070342837057185e-03  -8.8625049461973603e-03  1.1727856166068317e-02  -1.4590684424910960e-02  1.7337107461968163e-02  -1.9855775616124657e-02  2.2041801835317287e-02  -2.3800470609656312e-02  2.5050600542747593e-02  -2.5727441738771350e-02  2.5785007346886490e-02  -2.5197757291843145e-02  2.3961576310894444e-02  -2.2094012310808021e-02  1.9633764207919745e-02  -1.6639439887799756e-02  1.3187624075920406e-02  -9.3703250128664047e-03  5.2918857643862458e-03  -1.0654708836158691e-03  1.0193897935787473e-03  -5.0618322780746289e-03  8.9509689833473047e-03  -1.2569618047451912e-02  1.5809834544587353e-02  -1.8576592480747514e-02  2.0791016569754545e-02  -2.2393055329279259e-02  2.3343502036582659e-02  -2.3625291784432779e-02  2.3244032583430923e-02  -2.2227751636479484e-02  2.0625864499524863e-02  -1.8507404689011832e-02  1.5958572935666139e-02  -1.3079695973245070e-02  9.9816959905027740e-03  -6.7821957259180561e-03  3.6013945996624438e-03  -5.5785908666854123e-04  -2.2356269621340175e-03  4.6760059601694479e-03  -6.6735493835389272e-03  8.1549939765919489e-03  -9.0661001225184196e-03  9.3735479423940025e-03  -9.0661000195953780e-03  8.1549937528104018e-03  -6.6735493790405602e-03  4.6760063420188801e-03  -2.2356279423741653e-03  -5.5785777515411465e-04  3.6013934847778806e-03  -6.7821943503608879e-03  9.9816947384047186e-03  -1.3079694801556154e-02  1.5958571809566342e-02  -1.8507403771761834e-02  2.0625864379817921e-02  -2.2227751763233789e-02  2.3244033048333550e-02  -2.3625292529543714e-02  2.3343503158353089e-02  -2.2393056575293727e-02  2.0791017106194548e-02  -1.8576592749278968e-02  1.5809834683430984e-02  -1.2569618185384102e-