<?xml version="1.0"?>
<VTKFile type="UnstructuredGrid"  version="0.1"  >
<UnstructuredGrid>
<Piece  NumberOfPoints="2601" NumberOfCells="5000">
<Points>
<DataArray  type="Float64"  NumberOfComponents="3"  format="ascii">-10 -10 0  -9.6 -10 0  -9.199999999999999 -10 0  -8.800000000000001 -10 0  -8.4 -10 0  -8 -10 0  -7.6 -10 0  -7.2 -10 0  -6.8 -10 0  -6.4 -10 0  -6 -10 0  -5.6 -10 0  -5.2 -10 0  -4.8 -10 0  -4.4 -10 0  -4 -10 0  -3.6 -10 0  -3.2 -10 0  -2.8 -10 0  -2.4 -10 0  -2 -10 0  -1.6 -10 0  -1.199999999999999 -10 0  -0.8000000000000007 -10 0  -0.4000000000000004 -10 0  0 -10 0  0.4000000000000004 -10 0  0.8000000000000007 -10 0  1.199999999999999 -10 0  1.6 -10 0  2 -10 0  2.4 -10 0  2.800000000000001 -10 0  3.199999999999999 -10 0  3.6 -10 0  4 -10 0  4.4 -10 0  4.800000000000001 -10 0  5.199999999999999 -10 0  5.6 -10 0  6 -10 0  6.399999999999999 -10 0  6.800000000000001 -10 0  7.199999999999999 -10 0  7.600000000000001 -10 0  8 -10 0  8.399999999999999 -10 0  8.800000000000001 -10 0  9.199999999999999 -10 0  9.600000000000001 -10 0  10 -10 0  -10 -9.6 0  -9.6 -9.6 0  -9.199999999999999 -9.6 0  -8.800000000000001 -9.6 0  -8.4 -9.6 0  -8 -9.6 0  -7.6 -9.6 0  -7.2 -9.6 0  -6.8 -9.6 0  -6.4 -9.6 0  -6 -9.6 0  -5.6 -9.6 0  -5.2 -9.6 0  -4.8 -9.6 0  -4.4 -9.6 0  -4 -9.6 0  -3.6 -9.6 0  -3.2 -9.6 0  -2.8 -9.6 0  -2.4 -9.6 0  -2 -9.6 0  -1.6 -9.6 0  -1.199999999999999 -9.6 0  -0.8000000000000007 -9.6 0  -0.4000000000000004 -9.6 0  0 -9.6 0  0.4000000000000004 -9.6 0  0.8000000000000007 -9.6 0  1.199999999999999 -9.6 0  1.6 -9.6 0  2 -9.6 0  2.4 -9.6 0  2.800000000000001 -9.6 0  3.199999999999999 -9.6 0  3.6 -9.6 0  4 -9.6 0  4.4 -9.6 0  4.800000000000001 -9.6 0  5.199999999999999 -9.6 0  5.6 -9.6 0  6 -9.6 0  6.399999999999999 -9.6 0  6.800000000000001 -9.6 0  7.199999999999999 -9.6 0  7.600000000000001 -9.6 0  8 -9.6 0  8.399999999999999 -9.6 0  8.800000000000001 -9.6 0  9.199999999999999 -9.6 0  9.600000000000001 -9.6 0  10 -9.6 0  -10 -9.199999999999999 0  -9.6 -9.199999999999999 0  -9.199999999999999 -9.199999999999999 0  -8.800000000000001 -9.199999999999999 0  -8.4 -9.199999999999999 0  -8 -9.199999999999999 0  -7.6 -9.199999999999999 0  -7.2 -9.199999999999999 0  -6.8 -9.199999999999999 0  -6.4 -9.199999999999999 0  -6 -9.199999999999999 0  -5.6 -9.199999999999999 0  -5.2 -9.199999999999999 0  -4.8 -9.199999999999999 0  -4.4 -9.199999999999999 0  -4 -9.199999999999999 0  -3.6 -9.199999999999999 0  -3.2 -9.199999999999999 0  -2.8 -9.199999999999999 0  -2.4 -9.199999999999999 0  -2 -9.199999999999999 0  -1.6 -9.199999999999999 0  -1.199999999999999 -9.199999999999999 0  -0.8000000000000007 -9.199999999999999 0  -0.4000000000000004 -9.199999999999999 0  0 -9.199999999999999 0  0.4000000000000004 -9.199999999999999 0  0.8000000000000007 -9.199999999999999 0  1.199999999999999 -9.199999999999999 0  1.6 -9.199999999999999 0  2 -9.199999999999999 0  2.4 -9.199999999999999 0  2.800000000000001 -9.199999999999999 0  3.199999999999999 -9.199999999999999 0  3.6 -9.199999999999999 0  4 -9.199999999999999 0  4.4 -9.199999999999999 0  4.800000000000001 -9.199999999999999 0  5.199999999999999 -9.199999999999999 0  5.6 -9.199999999999999 0  6 -9.199999999999999 0  6.399999999999999 -9.199999999999999 0  6.800000000000001 -9.199999999999999 0  7.199999999999999 -9.199999999999999 0  7.600000000000001 -9.199999999999999 0  8 -9.199999999999999 0  8.399999999999999 -9.199999999999999 0  8.800000000000001 -9.199999999999999 0  9.199999999999999 -9.199999999999999 0  9.600000000000001 -9.199999999999999 0  10 -9.199999999999999 0  -10 -8.800000000000001 0  -9.6 -8.800000000000001 0  -9.199999999999999 -8.800000000000001 0  -8.800000000000001 -8.800000000000001 0  -8.4 -8.800000000000001 0  -8 -8.800000000000001 0  -7.6 -8.800000000000001 0  -7.2 -8.800000000000001 0  -6.8 -8.800000000000001 0  -6.4 -8.800000000000001 0  -6 -8.800000000000001 0  -5.6 -8.800000000000001 0  -5.2 -8.800000000000001 0  -4.8 -8.800000000000001 0  -4.4 -8.800000000000001 0  -4 -8.800000000000001 0  -3.6 -8.800000000000001 0  -3.2 -8.800000000000001 0  -2.8 -8.800000000000001 0  -2.4 -8.800000000000001 0  -2 -8.800000000000001 0  -1.6 -8.800000000000001 0  -1.199999999999999 -8.800000000000001 0  -0.8000000000000007 -8.800000000000001 0  -0.4000000000000004 -8.800000000000001 0  0 -8.800000000000001 0  0.4000000000000004 -8.800000000000001 0  0.8000000000000007 -8.800000000000001 0  1.199999999999999 -8.800000000000001 0  1.6 -8.800000000000001 0  2 -8.800000000000001 0  2.4 -8.800000000000001 0  2.800000000000001 -8.800000000000001 0  3.199999999999999 -8.800000000000001 0  3.6 -8.800000000000001 0  4 -8.800000000000001 0  4.4 -8.800000000000001 0  4.800000000000001 -8.800000000000001 0  5.199999999999999 -8.800000000000001 0  5.6 -8.800000000000001 0  6 -8.800000000000001 0  6.399999999999999 -8.800000000000001 0  6.800000000000001 -8.800000000000001 0  7.199999999999999 -8.800000000000001 0  7.600000000000001 -8.800000000000001 0  8 -8.800000000000001 0  8.399999999999999 -8.800000000000001 0  8.800000000000001 -8.800000000000001 0  9.199999999999999 -8.800000000000001 0  9.600000000000001 -8.800000000000001 0  10 -8.800000000000001 0  -10 -8.4 0  -9.6 -8.4 0  -9.199999999999999 -8.4 0  -8.800000000000001 -8.4 0  -8.4 -8.4 0  -8 -8.4 0  -7.6 -8.4 0  -7.2 -8.4 0  -6.8 -8.4 0  -6.4 -8.4 0  -6 -8.4 0  -5.6 -8.4 0  -5.2 -8.4 0  -4.8 -8.4 0  -4.4 -8.4 0  -4 -8.4 0  -3.6 -8.4 0  -3.2 -8.4 0  -2.8 -8.4 0  -2.4 -8.4 0  -2 -8.4 0  -1.6 -8.4 0  -1.199999999999999 -8.4 0  -0.8000000000000007 -8.4 0  -0.4000000000000004 -8.4 0  0 -8.4 0  0.4000000000000004 -8.4 0  0.8000000000000007 -8.4 0  1.199999999999999 -8.4 0  1.6 -8.4 0  2 -8.4 0  2.4 -8.4 0  2.800000000000001 -8.4 0  3.199999999999999 -8.4 0  3.6 -8.4 0  4 -8.4 0  4.4 -8.4 0  4.800000000000001 -8.4 0  5.199999999999999 -8.4 0  5.6 -8.4 0  6 -8.4 0  6.399999999999999 -8.4 0  6.800000000000001 -8.4 0  7.199999999999999 -8.4 0  7.600000000000001 -8.4 0  8 -8.4 0  8.399999999999999 -8.4 0  8.800000000000001 -8.4 0  9.199999999999999 -8.4 0  9.600000000000001 -8.4 0  10 -8.4 0  -10 -8 0  -9.6 -8 0  -9.199999999999999 -8 0  -8.800000000000001 -8 0  -8.4 -8 0  -8 -8 0  -7.6 -8 0  -7.2 -8 0  -6.8 -8 0  -6.4 -8 0  -6 -8 0  -5.6 -8 0  -5.2 -8 0  -4.8 -8 0  -4.4 -8 0  -4 -8 0  -3.6 -8 0  -3.2 -8 0  -2.8 -8 0  -2.4 -8 0  -2 -8 0  -1.6 -8 0  -1.199999999999999 -8 0  -0.8000000000000007 -8 0  -0.4000000000000004 -8 0  0 -8 0  0.4000000000000004 -8 0  0.8000000000000007 -8 0  1.199999999999999 -8 0  1.6 -8 0  2 -8 0  2.4 -8 0  2.800000000000001 -8 0  3.199999999999999 -8 0  3.6 -8 0  4 -8 0  4.4 -8 0  4.800000000000001 -8 0  5.199999999999999 -8 0  5.6 -8 0  6 -8 0  6.399999999999999 -8 0  6.800000000000001 -8 0  7.199999999999999 -8 0  7.600000000000001 -8 0  8 -8 0  8.399999999999999 -8 0  8.800000000000001 -8 0  9.199999999999999 -8 0  9.600000000000001 -8 0  10 -8 0  -10 -7.6 0  -9.6 -7.6 0  -9.199999999999999 -7.6 0  -8.800000000000001 -7.6 0  -8.4 -7.6 0  -8 -7.6 0  -7.6 -7.6 0  -7.2 -7.6 0  -6.8 -7.6 0  -6.4 -7.6 0  -6 -7.6 0  -5.6 -7.6 0  -5.2 -7.6 0  -4.8 -7.6 0  -4.4 -7.6 0  -4 -7.6 0  -3.6 -7.6 0  -3.2 -7.6 0  -2.8 -7.6 0  -2.4 -7.6 0  -2 -7.6 0  -1.6 -7.6 0  -1.199999999999999 -7.6 0  -0.8000000000000007 -7.6 0  -0.4000000000000004 -7.6 0  0 -7.6 0  0.4000000000000004 -7.6 0  0.8000000000000007 -7.6 0  1.199999999999999 -7.6 0  1.6 -7.6 0  2 -7.6 0  2.4 -7.6 0  2.800000000000001 -7.6 0  3.199999999999999 -7.6 0  3.6 -7.6 0  4 -7.6 0  4.4 -7.6 0  4.800000000000001 -7.6 0  5.199999999999999 -7.6 0  5.6 -7.6 0  6 -7.6 0  6.399999999999999 -7.6 0  6.800000000000001 -7.6 0  7.199999999999999 -7.6 0  7.600000000000001 -7.6 0  8 -7.6 0  8.399999999999999 -7.6 0  8.800000000000001 -7.6 0  9.199999999999999 -7.6 0  9.600000000000001 -7.6 0  10 -7.6 0  -10 -7.2 0  -9.6 -7.2 0  -9.199999999999999 -7.2 0  -8.800000000000001 -7.2 0  -8.4 -7.2 0  -8 -7.2 0  -7.6 -7.2 0  -7.2 -7.2 0  -6.8 -7.2 0  -6.4 -7.2 0  -6 -7.2 0  -5.6 -7.2 0  -5.2 -7.2 0  -4.8 -7.2 0  -4.4 -7.2 0  -4 -7.2 0  -3.6 -7.2 0  -3.2 -7.2 0  -2.8 -7.2 0  -2.4 -7.2 0  -2 -7.2 0  -1.6 -7.2 0  -1.199999999999999 -7.2 0  -0.8000000000000007 -7.2 0  -0.4000000000000004 -7.2 0  0 -7.2 0  0.4000000000000004 -7.2 0  0.8000000000000007 -7.2 0  1.199999999999999 -7.2 0  1.6 -7.2 0  2 -7.2 0  2.4 -7.2 0  2.800000000000001 -7.2 0  3.199999999999999 -7.2 0  3.6 -7.2 0  4 -7.2 0  4.4 -7.2 0  4.800000000000001 -7.2 0  5.199999999999999 -7.2 0  5.6 -7.2 0  6 -7.2 0  6.399999999999999 -7.2 0  6.800000000000001 -7.2 0  7.199999999999999 -7.2 0  7.600000000000001 -7.2 0  8 -7.2 0  8.399999999999999 -7.2 0  8.800000000000001 -7.2 0  9.199999999999999 -7.2 0  9.600000000000001 -7.2 0  10 -7.2 0  -10 -6.8 0  -9.6 -6.8 0  -9.199999999999999 -6.8 0  -8.800000000000001 -6.8 0  -8.4 -6.8 0  -8 -6.8 0  -7.6 -6.8 0  -7.2 -6.8 0  -6.8 -6.8 0  -6.4 -6.8 0  -6 -6.8 0  -5.6 -6.8 0  -5.2 -6.8 0  -4.8 -6.8 0  -4.4 -6.8 0  -4 -6.8 0  -3.6 -6.8 0  -3.2 -6.8 0  -2.8 -6.8 0  -2.4 -6.8 0  -2 -6.8 0  -1.6 -6.8 0  -1.199999999999999 -6.8 0  -0.8000000000000007 -6.8 0  -0.4000000000000004 -6.8 0  0 -6.8 0  0.4000000000000004 -6.8 0  0.8000000000000007 -6.8 0  1.199999999999999 -6.8 0  1.6 -6.8 0  2 -6.8 0  2.4 -6.8 0  2.800000000000001 -6.8 0  3.199999999999999 -6.8 0  3.6 -6.8 0  4 -6.8 0  4.4 -6.8 0  4.800000000000001 -6.8 0  5.199999999999999 -6.8 0  5.6 -6.8 0  6 -6.8 0  6.399999999999999 -6.8 0  6.800000000000001 -6.8 0  7.199999999999999 -6.8 0  7.600000000000001 -6.8 0  8 -6.8 0  8.399999999999999 -6.8 0  8.800000000000001 -6.8 0  9.199999999999999 -6.8 0  9.600000000000001 -6.8 0  10 -6.8 0  -10 -6.4 0  -9.6 -6.4 0  -9.199999999999999 -6.4 0  -8.800000000000001 -6.4 0  -8.4 -6.4 0  -8 -6.4 0  -7.6 -6.4 0  -7.2 -6.4 0  -6.8 -6.4 0  -6.4 -6.4 0  -6 -6.4 0  -5.6 -6.4 0  -5.2 -6.4 0  -4.8 -6.4 0  -4.4 -6.4 0  -4 -6.4 0  -3.6 -6.4 0  -3.2 -6.4 0  -2.8 -6.4 0  -2.4 -6.4 0  -2 -6.4 0  -1.6 -6.4 0  -1.199999999999999 -6.4 0  -0.8000000000000007 -6.4 0  -0.4000000000000004 -6.4 0  0 -6.4 0
[...]
<PointData  Scalars="f_170"> 
<DataArray  type="Float64"  Name="f_170"  format="ascii">-5.9763594660161875e-05  4.1352902498352647e-04  -7.3650047756937430e-04  1.0384921803574415e-03  -1.3129501888914830e-03  1.5522860670835080e-03  -1.7493454904244415e-03  1.8977081790991933e-03  -1.9918988566693598e-03  2.0275998229987392e-03  -2.0018660033213429e-03  1.9133325937638456e-03  -1.7624016387233737e-03  1.5513928010235359e-03  -1.2846427775774856e-03  9.6853895127444281e-04  -6.1147476812351974e-04  2.2371739923743471e-04  1.8281743833550203e-04  -5.9488381086605056e-04  9.9831187353949507e-04  -1.3784913510098188e-03  1.7209158754151344e-03  -2.0117671179121950e-03  2.2385133425142758e-03  -2.3904944119645835e-03  2.4594635575343974e-03  -2.4400566953309945e-03  2.3301615864995992e-03  -2.1311628090224153e-03  1.8480434816594829e-03  -1.4893309391174373e-03  1.0668809511108054e-03  -5.9550303824385800e-04  9.2437584738470869e-05  4.2329650090934128e-04  -9.3165770318061282e-04  1.4124092033539449e-03  -1.8459807396044427e-03  2.2143253673847178e-03  -2.5017303348588201e-03  2.6955426763421693e-03  -2.7867731305516244e-03  2.7705472451495868e-03  -2.6463793784207317e-03  2.4182529565825442e-03  -2.0944983343861049e-03  1.6874549551341401e-03  -1.2127711146604798e-03  6.8656481872595603e-04  -9.9367261450437037e-05  4.1164756980278640e-04  -2.0432080587271858e-03  3.6220472487018206e-03  -5.1061927561096903e-03  6.4558392038550115e-03  -7.6330412448022689e-03  8.6025663257435110e-03  -9.3328260160777943e-03  9.7968651801377000e-03  -9.9734035452806874e-03  9.8478957408870155e-03  -9.4135558125417029e-03  8.6722799770060678e-03  -7.6353933387340936e-03  6.3241447886791856e-03  -4.7698783275674627e-03  3.0138187992653641e-03  -1.1064256664920296e-03  -8.9371113318301805e-04  2.9214347304341672e-03  -4.9070191111006394e-03  6.7785480496970084e-03  -8.4645950620139670e-03  9.8971002546079032e-03  -1.1014319656170600e-02  1.1763708460184546e-02  -1.2104592628680532e-02  1.2010483849823759e-02  -1.1470901890742817e-02  1.0492585436188794e-02  -9.0999972254706112e-03  7.3350603923093933e-03  -5.2560991091856416e-03  2.9359958309470818e-03  -4.5961799341419422e-04  -2.0793939864057298e-03  4.5823494232076446e-03  -6.9495826050371369e-03  9.0846990613881913e-03  -1.0898796967497154e-02  1.2314463384071467e-02  -1.3269350345310727e-02  1.3719151844940956e-02  -1.3639828269160754e-02  1.3028957923218442e-02  -1.1906135424494561e-02  1.0312378943230588e-02  -8.3085472719503211e-03  5.9727939738302505e-03  -3.3971848995038210e-03  6.8543323288070175e-04  -7.1428544977135042e-04  3.5287919383860901e-03  -6.2533861604816112e-03  8.8165272976978744e-03  -1.1149299888617854e-02  1.3186204125256113e-02  -1.4866391678586919e-02  1.6135159673720156e-02  -1.6945627980760308e-02  1.7260543728381757e-02  -1.7054137667235691e-02  1.6313933749222555e-02  -1.5042392954545378e-02  1.3258259962480163e-02  -1.0997477748115585e-02  8.3135418992732937e-03  -5.2771838201447355e-03  1.9752987534712380e-03  1.4909293530923828e-03  -5.0087112942026743e-03  8.4571025338527374e-03  -1.1711128337040081e-02  1.4646445590922244e-02  -1.7144359553107818e-02  1.9096978353269293e-02  -2.0412262425066382e-02  2.1018713506677771e-02  -2.0869448274774046e-02  1.9945417184467275e-02  -1.8257558774654882e-02  1.5847722620642539e-02  -1.2788248707199853e-02  9.1801541216647419e-03  -5.1499470366015831e-03  8.4515885624645724e-04  3.5712458654900995e-03  -7.9273586375264941e-03  1.2049439128520951e-02  -1.5769332589004707e-02  1.8931849815883296e-02  -2.1401758527444834e-02  2.3070044520859326e-02  -2.3859128592673168e-02  2.3726770026662909e-02  -2.2668446016699432e-02  2.0718067550115148e-02  -1.7946972513552921e-02  1.4461222371748055e-02  -1.0397330282810735e-02  5.9167063550444269e-03  -1.1994100718449123e-03  9.6458373844123576e-04  -4.7643695593569176e-03  8.4438071963438086e-03  -1.1907959270032322e-02  1.5064648460345297e-02  -1.7825893976990029e-02  2.0109599209214811e-02  -2.1841538741433800e-02  2.2957618966115909e-02  -2.3406346398933988e-02  2.3151400668335775e-02  -2.2174173517684380e-02  2.0476106995263536e-02  -1.8080645179132007e-02  1.5034608443145725e-02  -1.1408807747180979e-02  7.2977396647368681e-03  -2.8182399399706379e-03  -1.8929767132293881e-03  6.6829035869224156e-03  -1.1386902650095758e-02  1.5834317350369220e-02  -1.9854848763218635e-02  2.3285446419719948e-02  -2.5977413936073501e-02  2.7803393946259653e-02  -2.8663877552325460e-02  2.8492883702477174e-02  -2.7262474245487344e-02  2.4985810906803047e-02  -2.1718519529285735e-02  1.7558201922101245e-02  -1.2642023386661944e-02  7.1423995460967032e-03  -1.2609044987950293e-03  -4.7793816774732208e-03  1.0742780124728952e-02  -1.6390794338425177e-02  2.1492327178768686e-02  -2.5833859675161858e-02  2.9229105612101722e-02  -3.1527668532903064e-02  3.2622265645369117e-02  -3.2454144698116923e-02  3.1016401332382610e-02  -2.8355003469191085e-02  2.4567440149744206e-02  -1.9799030844791045e-02  1.4237053039487116e-02  -8.1029606199937206e-03  1.6430033521142447e-03  -1.1461490802214698e-03  5.6613571339503644e-03  -1.0036145760182944e-02  1.4159794180478148e-02  -1.7924305757594090e-02  2.1226006266818552e-02  -2.3967471681352385e-02  2.6059843529325191e-02  -2.7425520285766128e-02  2.8001155178119779e-02  -2.7740836217364659e-02  2.6619277322147302e-02  -2.4634810931275709e-02  2.1811947958725930e-02  -1.8203261814148670e-02  1.3890362842165438e-02  -8.9837565518460418e-03  3.6214249811429232e-03  2.0339687711342929e-03  -7.7992784853257620e-03  1.3476419086814080e-02  -1.8859114692241542e-02  2.3740624343430414e-02  -2.7922142311013105e-02  3.1221506300816229e-02  -3.3481799658466517e-02  3.4579408894781713e-02  -3.4431095929547073e-02  3.2999668214543809e-02  -3.0297878637599879e-02  2.6390259164825011e-02  -2.1392684184567447e-02  1.5469567655604007e-02  -8.8287161438709433e-03  1.7139819168129967e-03  5.6040209121743633e-03  -1.2838764255945019e-02  1.9699752133423429e-02  -2.5905027103191959e-02  3.1193653549930481e-02  -3.5337578760275185e-02  3.8152287321093742e-02  -3.9505710288338956e-02  3.9324925928564285e-02  -3.7600289037529926e-02  3.4386747638116631e-02  -2.9802241854194937e-02  2.4023223230143179e-02  -1.7277475428411099e-02  9.8345444668252024e-03  -1.9941772317794864e-03  1.2456803611591795e-03  -6.1534216332335559e-03  1.0912871049291074e-02  -1.5406793051226306e-02  1.9520176541489746e-02  -2.3141712552595776e-02  2.6165719060284413e-02  -2.8494572448971588e-02  3.0041640764469441e-02  -3.0734645814813007e-02  3.0519315512542181e-02  -2.9363129000046818e-02  2.7258909889508444e-02  -2.4227990710973629e-02  2.0322659362518605e-02  -1.5627605928595703e-02  1.0260118907354768e-02  -4.3688305824962533e-03  -1.8691183964383835e-03  8.2525400877302684e-03  -1.4562235214299840e-02  2.0568452896636610e-02  -2.6039524465499331e-02  3.0751331285957289e-02  -3.4497190008904693e-02  3.7097682543207250e-02  -3.8409925900327935e-02  3.8335772943054611e-02  -3.6828459432877547e-02  3.3897267396749919e-02  -2.9609855363462799e-02  2.4092011310456400e-02  -1.7524707254972106e-02  1.0138470258919790e-02  -2.2052249054278785e-03  -5.9721001643110692e-03  1.4071782017007591e-02  -2.1766801504522912e-02  2.8739017651654944e-02  -3.4693352340548302e-02  3.9371299675506351e-02  -4.2563089891595934e-02  4.4117889058973507e-02  -4.3951500934726891e-02  4.2051151864614091e-02  -3.8477078167947744e-02  3.3360790820517426e-02  -2.6900055738988463e-02  1.9350790663627174e-02  -1.1016230779899303e-02  2.2338475615422482e-03  -1.2551862401138298e-03  6.2010363216838966e-03  -1.1003917755783674e-02  1.5550237693903415e-02  -1.9727571465495516e-02  2.3425772705765641e-02  -2.6538649935061900e-02  2.8966284978263063e-02  -3.0617998325438028e-02  3.1415890415499345e-02  -3.1298811747503062e-02  3.0226546214180767e-02  -2.8183935292001201e-02  2.5184631915508741e-02  -2.1274154759489690e-02  1.6531919588143290e-02  -1.1071954364971140e-02  5.0420597560072132e-03  1.3787484212744569e-03  -7.9845844354768537e-03  1.4548789920790959e-02  -2.0831636381513131e-02  2.6589375671813516e-02  -3.1584279675235777e-02  3.5595223271074755e-02  -3.8428299861378627e-02  3.9926919845373568e-02  -3.9980834050830617e-02  3.8533547973216807e-02  -3.5587648361595926e-02  3.1207650073105324e-02  -2.5520083221763374e-02  1.8710674371241545e-02  -1.1018622612516977e-02  2.7281245343382847e-03  5.8425471449031000e-03  -1.4353967216501373e-02  2.2459919872204182e-02  -2.9822541475037715e-02  3.6127526090239920e-02  -4.1098651884592594e-02  4.4510901586187569e-02  -4.6201503796250494e-02  4.6078313261621387e-02  -4.4125070924255536e-02  4.0403234363018438e-02  -3.5050237013352831e-02  2.8274212022893246e-02  -2.0345393846050573e-02  1.1584578094009215e-02  -2.3491714945425646e-03  1.1726648587223124e-03  -5.7942913637078920e-03  1.0291549708394071e-02  -1.4564758125087418e-02  1.8513797835188688e-02  -2.2038618523272206e-02  2.5040430015681424e-02  -2.7423678990182540e-02  2.9098832071229656e-02  -2.9985901990279354e-02  3.0018568941728708e-02  -2.9148671206524122e-02  2.7350774474670082e-02  -2.4626482596973757e-02  2.1008129122022726e-02  -1.6561490278029559e-02  1.1387189186365446e-02  -5.6205151628582030e-03  -5.7053968727544967e-04  6.9891269078915510e-03  -1.3415259948254109e-02  1.9613274499100716e-02  -2.5340782922521662e-02  3.0358764249856330e-02  -3.4442336458583557e-02  3.7391684480312090e-02  -3.9042572425127813e-02  3.9275854916564344e-02  -3.8025422459314617e-02  3.5284070605643453e-02  -3.1106868780184486e-02  2.5611719766934785e-02  -1.8976938114933967e-02  1.1435828564738616e-02  -3.2684052436191464e-03  -5.2094497065690330e-03  1.3658942806078113e-02  -2.1732868816669779e-02  2.9090981340041851e-02  -3.5415496360919674e-02  4.0425963449289178e-02  -4.3892751661189784e-02  4.5648451255829121e-02  -4.5596583957118728e-02  4.3717141081362765e-02  -4.0068622188919378e-02  3.4786420750493291e-02  -2.8077586726517622e-02  2.0212180399100856e-02  -1.1511606643498264e-02  2.3344761041076273e-03  -1.0022903289849342e-03  4.9537669033936508e-03  -8.8118757128405282e-03  1.2500465366309547e-02  -1.5940861507409750e-02  1.9051555827052039e-02  -2.1748698896042005e-02  2.3947523569081107e-02  -2.5564740882013909e-02  2.6521859515913480e-02  -2.6749287080081278e-02  2.6190986249830066e-02  -2.4809386128009016e-02  2.2590195567725388e-02  -1.9546735255760117e-02  1.5723401750624384e-02  -1.1197901240201001e-02  6.0819430947831746e-03  -5.2015990453056782e-04  -5.3128807563046828e-03  1.1217594461741025e-02  -1.6976127573024531e-02  2.2360711393013325e-02  -2.7143284150921196e-02  3.1105941109353545e-02  -3.4051694086000825e-02  3.5814970034194663e-02  -3.6271258825096353e-02  3.5345335060959250e-02  -3.3017528190571653e-02  2.9327598072551711e-02  -2.4375884490529603e-02  1.8321535044073502e-02  -1.1377767300825589e-02  3.8042813641737463e-03  4.1029025750137305e-03  -1.2023758172161617e-02  1.9628165542715223e-02  -2.6590766840294478e-02  3.2606040104912554e-02  -3.7402835292593833e-02  4.0757625886461576e-02  -4.2505779539399331e-02  4.2550240411482913e-02  -4.0867138834525286e-02  3.7507995641790942e-02  -3.2598359649692675e-02  2.6332899296253119e-02  -1.8967152277454137e-02  1.0806311478371475e-02  -2.1915814741344042e-03  7.5418971543171696e-04  -3.7294278529073428e-03  6.6528978415719663e-03  -9.4802316753967476e-03  1.2162088962316700e-02  -1.4642861923789934e-02  1.6860295612012050e-02  -1.8746178367182568e-02  2.0228169280247992e-02  -2.1232732497435413e-02  2.1689050547462164e-02  -2.1533697056352483e-02  2.0715770307401959e-02  -1.9202128707987494e-02  1.6982332951589074e-02  -1.4072889449580787e-02  1.0520408812118763e-02  -6.4033397149496551e-03  1.8320114439729165e-03  3.0531868077510811e-03  -8.0855504690750986e-03  1.3077667628825748e-02  -1.7828706910044342e-02  2.2133084142212708e-02  -2.5790102521961483e-02  2.8614077455453014e-02  -3.0444400139717678e-02  3.1154967647335028e-02  -3.0662414698089138e-02  2.8932624018535726e-02  -2.5985066342007913e-02  2.1894625174158147e-02  -1.6790688674812593e-02  1.0853436130587694e-02  -4.3073998290341078e-03  -2.5874627908112975e-03  9.5468072022611827e-03  -1.6274542739202175e-02  2.2476467106061000e-02  -2.7874214403809671e-02  3.2218802530746916e-02  -3.5303070345861470e-02  3.6972339228064331e-02  -3.7132715143013001e-02  3.5756562465154962e-02  -3.2884822874550815e-02  2.8626015225228150e-02  -2.3151924912310065e-02  1.6690165844978708e-02  -9.5139641145833061e-03  1.9296609729050002e-03  -4.4383263206806018e-04  2.1976117495961069e-03  -3.9492013107663244e-03  5.6922706901304165e-03  -7.4128611366873903e-03  9.0870018726106443e-03  -1.0679338714936346e-02  1.2142958722994418e-02  -1.3420503098194281e-02  1.4446561643056152e-02  -1.5151240722117936e-02  1.5464701073933615e-02  -1.5322377837433843e-02  1.4670529343964997e-02  -1.3471718358064001e-02  1.1709812706342117e-02  -9.3941036648780268e-03  6.5621799407604075e-03  -3.2812604887341936e-03  -3.5222261406958204e-04  4.2148948036978611e-03  -8.1605508717269518e-03  1.2025975624796915e-02  -1.5638225678899238e-02  1.8823019829531423e-02  -2.1413800017941916e-02  2.3260962578109706e-02  -2.4240727096744318e-02  2.4263108493030656e-02  -2.3278489079392974e-02  2.1282350250266296e-02  -1.8317813948225160e-02  1.4475758879717884e-02  -9.8924079479022990e-03  4.7444249931684265e-03  7.5829825672646390e-04  -6.3818482100792759e-03  1.1879050508342792e-02  -1.7001250014776176e-02  2.1510503739237852e-02  -2.5191544078920103e-02  2.7862868961555359e-02  -2.9386351123668442e-02  2.9674829184750822e-02  -2.8697244598494730e-02  2.6481016303316195e-02  -2.3111490472051334e-02  1.8728459907980648e-02  -1.3519905673179049e-02  7.7132649507097870e-03  -1.5646643730805438e-03  9.1072103634842093e-05  -4.5629547958496349e-04  8.7360961116304987e-04  -1.3784683085655335e-03  1.9960231201575319e-03  -2.7376205390781919e-03  3.5983881887965623e-03  -4.5561178702911527e-03  5.5715636836507982e-03  -6.5901738692756857e-03  7.5451735015619366e-03  -8.3618178220430314e-03  8.9625493717849260e-03  -9.2727219315692101e-03  9.2265059607704834e-03  -8.7725662543727718e-03  7.8791057931027284e-03  -6.5378996825083552e-03  4.7669986392591237e-03  -2.6118593000836565e-03  1.4475362552981134e-04  2.5375826476968862e-03  -5.3179908689685905e-03  8.0644370949138292e-03  -1.0636782915226212e-02  1.2894409495341052e-02  -1.4704260388488783e-02  1.5948829089243381e-02  -1.6533606549218614e-02  1.6393522605498943e-02  -1.5497963072348655e-02  1.3854018339332155e-02  -1.1507716089801128e-02  8.5431041437937609e-03  -5.0791734464428352e-03  1.2647377232284185e-03  2.7284915007326229e-03  -6.7142857713712381e-03  1.0501296440115675e-02  -1.3902960558403761e-02  1.6747370993147527e-02  -1.8886559018915762e-02  2.0204663146013671e-02  -2.0624513584704938e-02  2.0112246126657529e-02  -1.8679665939019614e-02  1.6384206010550097e-02  -1.3326459049849578e-02  9.6453977460591936e-03  -5.5115286741582213e-03  1.1183422456676122e-03  2.8110382846266533e-04  -1.3810651881600966e-03  2.3736790060257668e-03  -3.1808141200604188e-03  3.7371287893559800e-03  -3.9946382453455529e-03  3.9261469107583847e-03  -3.5273170472914415e-03  2.8172330534577497e-03  -1.8374161412684209e-03  6.4934362526017483e-04  6.6937710815753412e-04  -2.0299428896438311e-03  3.3380880019691830e-03  -4.5002540932620721e-03  5.4298040928341664e-03  -6.0528816243554827e-03  6.3135369612840019e-03  -6.1777836079250290e-03  5.6363145139876770e-03  -4.7056889559480720e-03  3.4278956599510624e-03  -1.8682989080284474e-03  1.1207545464799075e-04  1.7406540651315717e-03  -3.5807127038008503e-03  5.2964206332467298e-03  -6.7804167916463605e-03  7.9363305131142058e-03  -8.6848901106566703e-03  8.9690861875175304e-03  -8.7580619028230708e-03  8.0494772913232340e-03  -6.8701860618063122e-03  5.2751645365702211e-03  -3.3447386121354915e-03  1.1802581133309434e-03  1.1015364947405965e-03  -3.3751292586149699e-03  5.5134382587132451e-03  -7.3951934867334005e-03  8.9120442428252348e-03  -9.9749708552528318e-03  1.0519614877512710e-02  -1.0510204666174470e-02  9.9418359946195078e-03  -8.8409644072536854e-03  7.2640724693991141e-03  -5.2945837155325666e-03  3.0381998165964971e-03  -6.1693169925811770e-04  -6.4803176070974528e-04  3.1927392995785161e-03  -5.5777965239613226e-03  7.6845181852440098e-03  -9.4090988451244056e-03  1.0668105644439384e-02  -1.1402825918122443e-02  1.1582229639385707e-02  -1.1204386635720017e-02  1.0296268684242410e-02  -8.9119595581807296e-03  7.1293878740595357e-03  -5.0457815841847761e-03  2.7721154799371750e-03  -4.2687839295128680e-04  -1.8704767481537554e-03  4.0060227152450513e-03  -5.8774178044778934e-03  7.3991959171080387e-03  -8.5069959793428965e-03  9.1605063022838096e-03  -9.3449779572982259e-03  9.0712474313204023e-03  -8.3742981583648478e-03  7.3104761677266423e-03  -5.9535532843479734e-03  4.3898965477641178e-03  -2.7130514019172232e-03  1.0180756362302833e-03  6.0403025382038309e-04  -2.0714630075127534e-03  3.3160264912894116e-03  -4.2865617712926716e-03  4.9512127019439691e-03  -5.2984183658225511e-03  5.3366048693086086e-03  -5.0926309213151222e-03  4.6091188490091674e-03  -3.9408708210358304e-03  3.1506241771176533e-03  -2.3044375993924414e-03  1.4670183914431902e-03  -6.9729953249752456e-04  4.4554313762260965e-05  4.5470341435004189e-04  -7.7884007204629595e-04  9.2211810708735871e-04  -8.9455518029525919e-04  7.2065257784125565e-04  -4.3709398904688329e-04  8.9583937012015788e-05  9.8495258006627137e-04  -4.8565161720825331e-03  8.5229562631395361e-03  -1.1830135357677758e-02  1.4640290943305559e-02  -1.6838231142562349e-02  1.8336419562564259e-02  -1.9078705587910926e-02  1.9042528351991644e-02  -1.8239501990594310e-02  1.6714374240930526e-02  -1.4542433716839885e-02  1.1825520033673115e-02  -8.6868598981187772e-03  5.2650089637904483e-03  -1.7072191387900060e-03  -1.8374258406479004e-03  5.2247606238777109e-03  -8.3218427030522010e-03  1.1012512350602348e-02  -1.3201956713021943e-02  1.4820087175933040e-02  -1.5823607134923787e-02  1.6196721154960150e-02  -1.5950509829344355e-02  1.5121064187028525e-02  -1.3766535822849028e-02  1.1963309675898346e-02  -9.8015435600604609e-03  7.3803409771187930e-03  -4.8028290809848471e-03  2.1714041457398504e-03  4.1661825694575423e-04  -2.8727483218481285e-03  5.1203097139273547e-03  -7.0965715579057688e-03  8.7539831431784967e-03  -1.0060526798814723e-02  1.0999256608817834e-02  -1.1567135843536953e-02  1.1773321377128061e-02  -1.1637066935198651e-02  1.1185427395762839e-02  -1.0450944218525214e-02  9.4694770540842306e-03  -8.2783206824416280e-03  6.9147122447401682e-03  -5.4147923901277494e-03  3.8130409896409323e-03  -2.1421643808982619e-03  4.3337119175394182e-04  -1.2686114576792829e-03  6.2576021192747256e-03  -1.1006384745459039e-02  1.5333212635004057e-02  -1.9073440645974923e-02  2.2086129321435204e-02  -2.4259620223463351e-02  2.5515847115892654e-02  -2.5813206344152698e-02  2.5147877111130430e-02  -2.3553553343484343e-02  2.1099621276189764e-02  -1.7887886066622238e-02  1.4048014522480097e-02  -9.7319150075037570e-03  5.1073186220993109e-03  -3.5085487736123092e-04  -4.3590697341860385e-03  8.8492823968127285e-03  -1.2958449855050585e-02  1.6543013919150341e-02  -1.9482229877954418e-02  2.1682129500673761e-02  -2.3078285226748090e-02  2.3637310366112784e-02  -2.3357088491380351e-02  2.2265781472940439e-02  -2.0419716148081878e-02  1.7900293018965948e-02  -1.4810094156482233e-02  1.1268391273861414e-02  -7.4062670425137584e-03  3.3615645739399338e-03  7.2612887970196051e-04  -4.7202756818987670e-03  8.4917958604267003e-03  -1.1922956883437750e-02  1.4910646536178908e-02  -1.7368965740278172e-02  1.9231111756115641e-02  -2.0450554414294945e-02  2.1001534867853163e-02  -2.0878938338835619e-02  2.0097608269278266e-02  -1.8691178783648239e-02  1.6710506307135404e-02  -1.4221779365892136e-02  1.1304379886093544e-02