<?xml version="1.0"?>
<VTKFile type="UnstructuredGrid"  version="0.1"  >
<UnstructuredGrid>
<Piece  NumberOfPoints="2601" NumberOfCells="5000">
<Points>
<DataArray  type="Float64"  NumberOfComponents="3"  format="ascii">-10 -10 0  -9.6 -10 0  -9.199999999999999 -10 0  -8.800000000000001 -10 0  -8.4 -10 0  -8 -10 0  -7.6 -10 0  -7.2 -10 0  -6.8 -10 0  -6.4 -10 0  -6 -10 0  -5.6 -10 0  -5.2 -10 0  -4.8 -10 0  -4.4 -10 0  -4 -10 0  -3.6 -10 0  -3.2 -10 0  -2.8 -10 0  -2.4 -10 0  -2 -10 0  -1.6 -10 0  -1.199999999999999 -10 0  -0.8000000000000007 -10 0  -0.4000000000000004 -10 0  0 -10 0  0.4000000000000004 -10 0  0.8000000000000007 -10 0  1.199999999999999 -10 0  1.6 -10 0  2 -10 0  2.4 -10 0  2.800000000000001 -10 0  3.199999999999999 -10 0  3.6 -10 0  4 -10 0  4.4 -10 0  4.800000000000001 -10 0  5.199999999999999 -10 0  5.6 -10 0  6 -10 0  6.399999999999999 -10 0  6.800000000000001 -10 0  7.199999999999999 -10 0  7.600000000000001 -10 0  8 -10 0  8.399999999999999 -10 0  8.800000000000001 -10 0  9.199999999999999 -10 0  9.600000000000001 -10 0  10 -10 0  -10 -9.6 0  -9.6 -9.6 0  -9.199999999999999 -9.6 0  -8.800000000000001 -9.6 0  -8.4 -9.6 0  -8 -9.6 0  -7.6 -9.6 0  -7.2 -9.6 0  -6.8 -9.6 0  -6.4 -9.6 0  -6 -9.6 0  -5.6 -9.6 0  -5.2 -9.6 0  -4.8 -9.6 0  -4.4 -9.6 0  -4 -9.6 0  -3.6 -9.6 0  -3.2 -9.6 0  -2.8 -9.6 0  -2.4 -9.6 0  -2 -9.6 0  -1.6 -9.6 0  -1.199999999999999 -9.6 0  -0.8000000000000007 -9.6 0  -0.4000000000000004 -9.6 0  0 -9.6 0  0.4000000000000004 -9.6 0  0.8000000000000007 -9.6 0  1.199999999999999 -9.6 0  1.6 -9.6 0  2 -9.6 0  2.4 -9.6 0  2.800000000000001 -9.6 0  3.199999999999999 -9.6 0  3.6 -9.6 0  4 -9.6 0  4.4 -9.6 0  4.800000000000001 -9.6 0  5.199999999999999 -9.6 0  5.6 -9.6 0  6 -9.6 0  6.399999999999999 -9.6 0  6.800000000000001 -9.6 0  7.199999999999999 -9.6 0  7.600000000000001 -9.6 0  8 -9.6 0  8.399999999999999 -9.6 0  8.800000000000001 -9.6 0  9.199999999999999 -9.6 0  9.600000000000001 -9.6 0  10 -9.6 0  -10 -9.199999999999999 0  -9.6 -9.199999999999999 0  -9.199999999999999 -9.199999999999999 0  -8.800000000000001 -9.199999999999999 0  -8.4 -9.199999999999999 0  -8 -9.199999999999999 0  -7.6 -9.199999999999999 0  -7.2 -9.199999999999999 0  -6.8 -9.199999999999999 0  -6.4 -9.199999999999999 0  -6 -9.199999999999999 0  -5.6 -9.199999999999999 0  -5.2 -9.199999999999999 0  -4.8 -9.199999999999999 0  -4.4 -9.199999999999999 0  -4 -9.199999999999999 0  -3.6 -9.199999999999999 0  -3.2 -9.199999999999999 0  -2.8 -9.199999999999999 0  -2.4 -9.199999999999999 0  -2 -9.199999999999999 0  -1.6 -9.199999999999999 0  -1.199999999999999 -9.199999999999999 0  -0.8000000000000007 -9.199999999999999 0  -0.4000000000000004 -9.199999999999999 0  0 -9.199999999999999 0  0.4000000000000004 -9.199999999999999 0  0.8000000000000007 -9.199999999999999 0  1.199999999999999 -9.199999999999999 0  1.6 -9.199999999999999 0  2 -9.199999999999999 0  2.4 -9.199999999999999 0  2.800000000000001 -9.199999999999999 0  3.199999999999999 -9.199999999999999 0  3.6 -9.199999999999999 0  4 -9.199999999999999 0  4.4 -9.199999999999999 0  4.800000000000001 -9.199999999999999 0  5.199999999999999 -9.199999999999999 0  5.6 -9.199999999999999 0  6 -9.199999999999999 0  6.399999999999999 -9.199999999999999 0  6.800000000000001 -9.199999999999999 0  7.199999999999999 -9.199999999999999 0  7.600000000000001 -9.199999999999999 0  8 -9.199999999999999 0  8.399999999999999 -9.199999999999999 0  8.800000000000001 -9.199999999999999 0  9.199999999999999 -9.199999999999999 0  9.600000000000001 -9.199999999999999 0  10 -9.199999999999999 0  -10 -8.800000000000001 0  -9.6 -8.800000000000001 0  -9.199999999999999 -8.800000000000001 0  -8.800000000000001 -8.800000000000001 0  -8.4 -8.800000000000001 0  -8 -8.800000000000001 0  -7.6 -8.800000000000001 0  -7.2 -8.800000000000001 0  -6.8 -8.800000000000001 0  -6.4 -8.800000000000001 0  -6 -8.800000000000001 0  -5.6 -8.800000000000001 0  -5.2 -8.800000000000001 0  -4.8 -8.800000000000001 0  -4.4 -8.800000000000001 0  -4 -8.800000000000001 0  -3.6 -8.800000000000001 0  -3.2 -8.800000000000001 0  -2.8 -8.800000000000001 0  -2.4 -8.800000000000001 0  -2 -8.800000000000001 0  -1.6 -8.800000000000001 0  -1.199999999999999 -8.800000000000001 0  -0.8000000000000007 -8.800000000000001 0  -0.4000000000000004 -8.800000000000001 0  0 -8.800000000000001 0  0.4000000000000004 -8.800000000000001 0  0.8000000000000007 -8.800000000000001 0  1.199999999999999 -8.800000000000001 0  1.6 -8.800000000000001 0  2 -8.800000000000001 0  2.4 -8.800000000000001 0  2.800000000000001 -8.800000000000001 0  3.199999999999999 -8.800000000000001 0  3.6 -8.800000000000001 0  4 -8.800000000000001 0  4.4 -8.800000000000001 0  4.800000000000001 -8.800000000000001 0  5.199999999999999 -8.800000000000001 0  5.6 -8.800000000000001 0  6 -8.800000000000001 0  6.399999999999999 -8.800000000000001 0  6.800000000000001 -8.800000000000001 0  7.199999999999999 -8.800000000000001 0  7.600000000000001 -8.800000000000001 0  8 -8.800000000000001 0  8.399999999999999 -8.800000000000001 0  8.800000000000001 -8.800000000000001 0  9.199999999999999 -8.800000000000001 0  9.600000000000001 -8.800000000000001 0  10 -8.800000000000001 0  -10 -8.4 0  -9.6 -8.4 0  -9.199999999999999 -8.4 0  -8.800000000000001 -8.4 0  -8.4 -8.4 0  -8 -8.4 0  -7.6 -8.4 0  -7.2 -8.4 0  -6.8 -8.4 0  -6.4 -8.4 0  -6 -8.4 0  -5.6 -8.4 0  -5.2 -8.4 0  -4.8 -8.4 0  -4.4 -8.4 0  -4 -8.4 0  -3.6 -8.4 0  -3.2 -8.4 0  -2.8 -8.4 0  -2.4 -8.4 0  -2 -8.4 0  -1.6 -8.4 0  -1.199999999999999 -8.4 0  -0.8000000000000007 -8.4 0  -0.4000000000000004 -8.4 0  0 -8.4 0  0.4000000000000004 -8.4 0  0.8000000000000007 -8.4 0  1.199999999999999 -8.4 0  1.6 -8.4 0  2 -8.4 0  2.4 -8.4 0  2.800000000000001 -8.4 0  3.199999999999999 -8.4 0  3.6 -8.4 0  4 -8.4 0  4.4 -8.4 0  4.800000000000001 -8.4 0  5.199999999999999 -8.4 0  5.6 -8.4 0  6 -8.4 0  6.399999999999999 -8.4 0  6.800000000000001 -8.4 0  7.199999999999999 -8.4 0  7.600000000000001 -8.4 0  8 -8.4 0  8.399999999999999 -8.4 0  8.800000000000001 -8.4 0  9.199999999999999 -8.4 0  9.600000000000001 -8.4 0  10 -8.4 0  -10 -8 0  -9.6 -8 0  -9.199999999999999 -8 0  -8.800000000000001 -8 0  -8.4 -8 0  -8 -8 0  -7.6 -8 0  -7.2 -8 0  -6.8 -8 0  -6.4 -8 0  -6 -8 0  -5.6 -8 0  -5.2 -8 0  -4.8 -8 0  -4.4 -8 0  -4 -8 0  -3.6 -8 0  -3.2 -8 0  -2.8 -8 0  -2.4 -8 0  -2 -8 0  -1.6 -8 0  -1.199999999999999 -8 0  -0.8000000000000007 -8 0  -0.4000000000000004 -8 0  0 -8 0  0.4000000000000004 -8 0  0.8000000000000007 -8 0  1.199999999999999 -8 0  1.6 -8 0  2 -8 0  2.4 -8 0  2.800000000000001 -8 0  3.199999999999999 -8 0  3.6 -8 0  4 -8 0  4.4 -8 0  4.800000000000001 -8 0  5.199999999999999 -8 0  5.6 -8 0  6 -8 0  6.399999999999999 -8 0  6.800000000000001 -8 0  7.199999999999999 -8 0  7.600000000000001 -8 0  8 -8 0  8.399999999999999 -8 0  8.800000000000001 -8 0  9.199999999999999 -8 0  9.600000000000001 -8 0  10 -8 0  -10 -7.6 0  -9.6 -7.6 0  -9.199999999999999 -7.6 0  -8.800000000000001 -7.6 0  -8.4 -7.6 0  -8 -7.6 0  -7.6 -7.6 0  -7.2 -7.6 0  -6.8 -7.6 0  -6.4 -7.6 0  -6 -7.6 0  -5.6 -7.6 0  -5.2 -7.6 0  -4.8 -7.6 0  -4.4 -7.6 0  -4 -7.6 0  -3.6 -7.6 0  -3.2 -7.6 0  -2.8 -7.6 0  -2.4 -7.6 0  -2 -7.6 0  -1.6 -7.6 0  -1.199999999999999 -7.6 0  -0.8000000000000007 -7.6 0  -0.4000000000000004 -7.6 0  0 -7.6 0  0.4000000000000004 -7.6 0  0.8000000000000007 -7.6 0  1.199999999999999 -7.6 0  1.6 -7.6 0  2 -7.6 0  2.4 -7.6 0  2.800000000000001 -7.6 0  3.199999999999999 -7.6 0  3.6 -7.6 0  4 -7.6 0  4.4 -7.6 0  4.800000000000001 -7.6 0  5.199999999999999 -7.6 0  5.6 -7.6 0  6 -7.6 0  6.399999999999999 -7.6 0  6.800000000000001 -7.6 0  7.199999999999999 -7.6 0  7.600000000000001 -7.6 0  8 -7.6 0  8.399999999999999 -7.6 0  8.800000000000001 -7.6 0  9.199999999999999 -7.6 0  9.600000000000001 -7.6 0  10 -7.6 0  -10 -7.2 0  -9.6 -7.2 0  -9.199999999999999 -7.2 0  -8.800000000000001 -7.2 0  -8.4 -7.2 0  -8 -7.2 0  -7.6 -7.2 0  -7.2 -7.2 0  -6.8 -7.2 0  -6.4 -7.2 0  -6 -7.2 0  -5.6 -7.2 0  -5.2 -7.2 0  -4.8 -7.2 0  -4.4 -7.2 0  -4 -7.2 0  -3.6 -7.2 0  -3.2 -7.2 0  -2.8 -7.2 0  -2.4 -7.2 0  -2 -7.2 0  -1.6 -7.2 0  -1.199999999999999 -7.2 0  -0.8000000000000007 -7.2 0  -0.4000000000000004 -7.2 0  0 -7.2 0  0.4000000000000004 -7.2 0  0.8000000000000007 -7.2 0  1.199999999999999 -7.2 0  1.6 -7.2 0  2 -7.2 0  2.4 -7.2 0  2.800000000000001 -7.2 0  3.199999999999999 -7.2 0  3.6 -7.2 0  4 -7.2 0  4.4 -7.2 0  4.800000000000001 -7.2 0  5.199999999999999 -7.2 0  5.6 -7.2 0  6 -7.2 0  6.399999999999999 -7.2 0  6.800000000000001 -7.2 0  7.199999999999999 -7.2 0  7.600000000000001 -7.2 0  8 -7.2 0  8.399999999999999 -7.2 0  8.800000000000001 -7.2 0  9.199999999999999 -7.2 0  9.600000000000001 -7.2 0  10 -7.2 0  -10 -6.8 0  -9.6 -6.8 0  -9.199999999999999 -6.8 0  -8.800000000000001 -6.8 0  -8.4 -6.8 0  -8 -6.8 0  -7.6 -6.8 0  -7.2 -6.8 0  -6.8 -6.8 0  -6.4 -6.8 0  -6 -6.8 0  -5.6 -6.8 0  -5.2 -6.8 0  -4.8 -6.8 0  -4.4 -6.8 0  -4 -6.8 0  -3.6 -6.8 0  -3.2 -6.8 0  -2.8 -6.8 0  -2.4 -6.8 0  -2 -6.8 0  -1.6 -6.8 0  -1.199999999999999 -6.8 0  -0.8000000000000007 -6.8 0  -0.4000000000000004 -6.8 0  0 -6.8 0  0.4000000000000004 -6.8 0  0.8000000000000007 -6.8 0  1.199999999999999 -6.8 0  1.6 -6.8 0  2 -6.8 0  2.4 -6.8 0  2.800000000000001 -6.8 0  3.199999999999999 -6.8 0  3.6 -6.8 0  4 -6.8 0  4.4 -6.8 0  4.800000000000001 -6.8 0  5.199999999999999 -6.8 0  5.6 -6.8 0  6 -6.8 0  6.399999999999999 -6.8 0  6.800000000000001 -6.8 0  7.199999999999999 -6.8 0  7.600000000000001 -6.8 0  8 -6.8 0  8.399999999999999 -6.8 0  8.800000000000001 -6.8 0  9.199999999999999 -6.8 0  9.600000000000001 -6.8 0  10 -6.8 0  -10 -6.4 0  -9.6 -6.4 0  -9.199999999999999 -6.4 0  -8.800000000000001 -6.4 0  -8.4 -6.4 0  -8 -6.4 0  -7.6 -6.4 0  -7.2 -6.4 0  -6.8 -6.4 0  -6.4 -6.4 0  -6 -6.4 0  -5.6 -6.4 0  -5.2 -6.4 0  -4.8 -6.4 0  -4.4 -6.4 0  -4 -6.4 0  -3.6 -6.4 0  -3.2 -6.4 0  -2.8 -6.4 0  -2.4 -6.4 0  -2 -6.4 0  -1.6 -6.4 0  -1.199999999999999 -6.4 0  -0.8000000000000007 -6.4 0  -0.4000000000000004 -6.4 0  0 -6.4 0
[...]
<PointData  Scalars="f_27"> 
<DataArray  type="Float64"  Name="f_27"  format="ascii">1.8995351301368628e-05  -1.3261335623102635e-04  2.3869622550111487e-04  -3.4214543636554501e-04  4.4258076688971171e-04  -5.3920282910828725e-04  6.3121646057599833e-04  -7.1787808119979030e-04  7.9850878269831552e-04  -8.7250297432567596e-04  9.3933545741521217e-04  -9.9856722597883125e-04  1.0498499728253028e-03  -1.0929293015724908e-03  1.1276465780586374e-03  -1.1539394234734903e-03  1.1718408494483885e-03  -1.1814770437811725e-03  1.1830638630713271e-03  -1.1769020854376316e-03  1.1633715001692750e-03  -1.1429239363421530e-03  1.1160753378959645e-03  -1.0833970179295997e-03  1.0455062138040707e-03  -1.0030561222153485e-03  9.5672552758320787e-04  -9.0720823046837144e-04  8.5520240262069839e-04  -8.0140005478311713e-04  7.4647677424363723e-04  -6.9108188046434311e-04  6.3582916167732352e-04  -5.8128832284976321e-04  5.2797727823800718e-04  -4.7635540596744789e-04  4.2681785169485658e-04  -3.7969098430516035e-04  3.3522904551049889e-04  -2.9361205561442182e-04  2.5494499335475859e-04  -2.1925825622709462e-04  1.8650937866649829e-04  -1.5658598476399116e-04  1.2930991141980695e-04  -1.0444240600963307e-04  8.1690251302618416e-05  -6.0712214494613454e-05  4.1120633941889386e-05  -2.2420425169533802e-05  3.2006835922062173e-06  -1.3258723722593509e-04  6.6427105292262019e-04  -1.1901841774915971e-03  1.7056207633364593e-03  -2.2062557886903733e-03  2.6878960668028080e-03  -3.1465574722720447e-03  3.5785299432726163e-03  -3.9804277272956524e-03  4.3492310420159197e-03  -4.6823211568104098e-03  4.9775092535715047e-03  -5.2330589384055621e-03  5.4477022137732634e-03  -5.6206487293123967e-03  5.7515882373360885e-03  -5.8406862556050340e-03  5.8885730409753423e-03  -5.8963260785674246e-03  5.8654463981626902e-03  -5.7978290895387306e-03  5.6957285273942400e-03  -5.5617188392448344e-03  5.3986502582684514e-03  -5.2096020415165391e-03  4.9978327087793189e-03  -4.7667283654684910e-03  4.5197499154594027e-03  -4.2603799930404857e-03  3.9920704131159420e-03  -3.7181909673442608e-03  3.4419803392874123e-03  -3.1664998763790029e-03  2.8945909469783849e-03  -2.6288364904664156e-03  2.3715273571122686e-03  -2.1246339178466233e-03  1.8897833789139065e-03  -1.6682430819397987e-03  1.4609100622314992e-03  -1.2683069541887214e-03  1.0905842901612231e-03  -9.2752909250515953e-04  7.7857959876724439e-04  -6.4284583397705133e-04  5.1913558033725427e-04  -4.0598520239867349e-04  3.0169433130069074e-04  -2.0436266140183641e-04  1.1192852705096326e-04  -2.2265417052095859e-05  2.3838381231145589e-04  -1.1888596921890743e-03  2.1291435010237507e-03  -3.0509295699201505e-03  3.9462806580705650e-03  -4.8076136147322170e-03  5.6277673506844022e-03  -6.4000867934570320e-03  7.1185031292855449e-03  -7.7776056677688046e-03  8.3727039076894223e-03  -8.8998790098364124e-03  9.3560240907297147e-03  -9.7388728060894842e-03  1.0047015910891693e-02  -1.0279905623234775e-02  1.0437847795590297e-02  -1.0521982078303307e-02  1.0534250448387336e-02  -1.0477354646786164e-02  1.0354703220829846e-02  -1.0170349043899404e-02  9.9289183181347010e-03  -9.6355321833105807e-03  9.2957221615647418e-03  -8.9153407904457426e-03  8.5004688271306857e-03  -8.0573204597700950e-03  7.5921480088970176e-03  -7.1111475827367633e-03  6.6203671293673548e-03  -6.1256183137103201e-03  5.6323935239030011e-03  -5.1457893149100126e-03  4.6704373850736886e-03  -4.2104441655675768e-03  3.7693398639677537e-03  -3.3500377525632666e-03  2.9548042337556183e-03  -2.5852401058422316e-03  2.2422732646938119e-03  -1.9261628666658471e-03  1.6365148128136486e-03  -1.3723082587699816e-03  1.1319326270697086e-03  -9.1323446739200050e-04  7.1357332929376587e-04  -5.2988577256714926e-04  3.5875700928138802e-04  -1.9650212891480565e-04  3.9266529486849317e-05  -3.4108364380734440e-04  1.7006608343619956e-03  -3.0454461753840925e-03  4.3637016930641297e-03  -5.6440456747556041e-03  6.8755836292077105e-03  -8.0480319499537205e-03  9.1518389488705679e-03  -1.0178298198974901e-02  1.1119650622940073e-02  -1.1969173118210306e-02  1.2721252302012046e-02  -1.3371442258319006e-02  1.3916505542227215e-02  -1.4354436895048376e-02  1.4684469416885884e-02  -1.4907063216590407e-02  1.5023876780066930e-02  -1.5037721606515116e-02  1.4952500880743886e-02  -1.4773133200128845e-02  1.4505462602248513e-02  -1.4156156337894438e-02  1.3732592010002143e-02  -1.3242735857830762e-02  1.2695014113738707e-02  -1.2098179435888496e-02  1.1461174481105993e-02  -1.0792994751939263e-02  1.0102552825331144e-02  -9.3985460411249461e-03  8.6893296849344971e-03  -7.9827975985765926e-03  7.2862720210717085e-03  -6.6064043069770980e-03  5.9490880370967492e-03  -5.3193857428551570e-03  4.7214703826755607e-03  -4.1585823383763322e-03  3.6330025412886990e-03  -3.1460420467455943e-03  2.6980481363902413e-03  -2.2884267036140569e-03  1.9156805341507628e-03  -1.5774627281772821e-03  1.2706443480457901e-03  -9.9139516055280754e-04  7.3527621402441395e-04  -4.9734303186378637e-04  2.7225824545568794e-04  -5.4410707746843908e-05  4.4011257095340781e-04  -2.1943816159285937e-03  3.9294129938866147e-03  -5.6300390058433951e-03  7.2815225029543998e-03  -8.8697445582331530e-03  1.0381376804678903e-02  -1.1804042209202077e-02  1.3126462942681256e-02  -1.4338592872310499e-02  1.5431732522522026e-02  -1.6398624700452683e-02  1.7233529402062204e-02  -1.7932276942050324e-02  1.8492298628750754e-02  -1.8912634627980707e-02  1.9193919036064950e-02  -1.9338342483978321e-02  1.9349592974161858e-02  -1.9232775963655829e-02  1.8994315000241128e-02  -1.8641834556819836e-02  1.8184026922946888e-02  -1.7630505271610013e-02  1.6991645224130297e-02  -1.6278417409878985e-02  1.5502213625920896e-02  -1.4674669300094057e-02  1.3807485018986368e-02  -1.2912249862885486e-02  1.2000269263091272e-02  -1.1082400023980915e-02  1.0168895019124826e-02  -9.2692599135597124e-03  8.3921240615592915e-03  -7.5451275257695473e-03  6.7348258479688677e-03  -5.9666140109365055e-03  5.2446706186630668e-03  -4.5719230680438955e-03  3.9500341462884950e-03  -3.3794101355670235e-03  2.8592301437711685e-03  -2.3874960999417634e-03  1.9611024958795429e-03  -1.5759246466925596e-03  1.2269239897539027e-03  -9.0826867576829749e-04  6.1346747431012582e-04  -3.3551461310108843e-04  6.7042053784684686e-05  -5.3449003122270822e-04  2.6649246825266662e-03  -4.7718332355208516e-03  6.8366953545644779e-03  -8.8415156252694190e-03  1.0769051283192945e-02  -1.2603026019962646e-02  1.4328328848994177e-02  -1.5931196018486450e-02  1.7399373571608083e-02  -1.8722258180308943e-02  1.9891014220357588e-02  -2.0898665413462313e-02  2.1740159755876304e-02  -2.2412406902663048e-02  2.2914287575570010e-02  -2.3246634992734022e-02  2.3412188748672146e-02  -2.3415521988467573e-02  2.3262943106671534e-02  -2.2962373616191186e-02  2.2523204162643001e-02  -2.1956130989048986e-02  2.1272975456131538e-02  -2.0486489461808220e-02  1.9610149819759660e-02  -1.8657944805498664e-02  1.7644156194348046e-02  -1.6583140158701846e-02  1.5489110415286644e-02  -1.4375926940582186e-02  1.3256893513063295e-02  -1.2144567138404137e-02  1.1050582269781747e-02  -9.9854924532891028e-03  8.9586317685245529e-03  -7.9779981135389508e-03  7.0501600277107423e-03  -6.1801883902481078e-03  5.3716138865492454e-03  -4.6264108001794159e-03  3.9450072220924394e-03  -3.3263213417599963e-03  2.7678231192783602e-03  -2.2656201984221254e-03  1.8145665763805146e-03  -1.4083921637812454e-03  1.0398510249649835e-03  -7.0088581480788235e-04  3.8280548843624903e-04  -7.6472989800043599e-05  6.2325603414113630e-04  -3.1074832992561484e-03  5.5640647563553304e-03  -7.9712465066808184e-03  1.0307894986289156e-02  -1.2553763057729209e-02  1.4689742226666795e-02  -1.6698097710607599e-02  1.8562683325335422e-02  -2.0269133305206851e-02  2.1805028350679934e-02  -2.3160033553756270e-02  2.4326006269707268e-02  -2.5297072446373928e-02  2.6069670413210976e-02  -2.6642561647960267e-02  2.7016808507774031e-02  -2.7195719428285497e-02  2.7184762592152089e-02  -2.6991449533767965e-02  2.6625190604179241e-02  -2.6097124639699161e-02  2.5419925571689400e-02  -2.4607589029164417e-02  2.3675202324941472e-02  -2.2638701415555851e-02  2.1514618645599171e-02  -2.0319825179374394e-02  1.9071272141710942e-02  -1.7785734421027745e-02  1.6479561108562014e-02  -1.5168436372374789e-02  1.3867154421676417e-02  -1.2589411969259915e-02  1.1347621316375987e-02  -1.0152746860090937e-02  9.0141674327238047e-03  -7.9395664816441936e-03  6.9348516637748187e-03  -6.0041049200891339e-03  5.1495636720371510e-03  -4.3716332437601629e-03  3.6689301506813102e-03  -3.0383553606106988e-03  2.4751962439067874e-03  -1.9732553966779237e-03  1.5250041388389570e-03  -1.1217580803350375e-03  7.5387179311385197e-04  -4.1094925576600275e-04  8.2066541082824511e-05  -7.0552184420932102e-04  3.5176229294225196e-03  -6.2981477192199020e-03  9.0222540540720285e-03  -1.1665812612550468e-02  1.4205711022640457e-02  -1.6620142893936461e-02  1.8888877550388407e-02  -2.0993506648222755e-02  2.2917664244469435e-02  -2.4647217192307534e-02  2.6170423197821820e-02  -2.7478054312664566e-02  2.8563484174218494e-02  -2.9422737870884067e-02  3.0054503851725634e-02  -3.0460107871313678e-02  3.0643449590211657e-02  -3.0610902929741404e-02  3.0371181906385068e-02  -2.9935174146099960e-02  2.9315744770961771e-02  -2.8527513815165700e-02  2.7586610671328234e-02  -2.6510409478636057e-02  2.5317249571961707e-02  -2.4026145363486913e-02  2.2656490181296545e-02  -2.1227758634618430e-02  1.9759212110522076e-02  -1.8269611922812467e-02  1.6776944506615883e-02  -1.5298162852509423e-02  1.3848948100284572e-02  -1.2443494887457577e-02  1.1094323652905550e-02  -9.8121226962750493e-03  8.6056222756267457e-03  -7.4815025515580754e-03  6.4443366259311083e-03  -5.4965693843415098e-03  4.6385322786052065e-03  -3.8684936070268738e-03  3.1827433108650221e-03  -2.5757107526383606e-03  2.0401134157247073e-03  -1.5671339837237846e-03  1.1466228118198658e-03  -7.6732237151380862e-04  4.1710992909645551e-04  -8.3254449964617744e-05  7.8048606518491014e-04  -3.8913464318461595e-03  6.9669117239950767e-03  -9.9794174918571843e-03  1.2901900944898395e-02  -1.5708542178033646e-02  1.8374988679145835e-02  -2.0878658294169780e-02  2.3199016272626525e-02  -2.5317822431417468e-02  2.7219344907583039e-02  -2.8890537494373317e-02  3.0321178058000924e-02  -3.1503966152366752e-02  3.2434578550351936e-02  -3.3111682060783243e-02  3.3536903630275283e-02  -3.3714758399429341e-02  3.3652536996142561e-02  -3.3360153969836041e-02  3.2849959883203057e-02  -3.2136520068386916e-02  3.1236363607170147e-02  -3.0167706515423529e-02  2.8950153483346411e-02  -2.7604382850157691e-02  2.6151819734181677e-02  -2.4614302402216848e-02  2.3013747029869754e-02  -2.1371816046700513e-02  1.9709595152180504e-02  -1.8047283953083689e-02  1.6403904945953389e-02  -1.4797035247599399e-02  1.3242565150877792e-02  -1.1754487079724296e-02  1.0344718104102726e-02  -9.0229585998031440e-03  7.7965890688001735e-03  -6.6706065380033701e-03  5.6476013243137212e-03  -4.7277743106509933e-03  3.9089942593431405e-03  -3.1868940182462474e-03  2.5550039164956686e-03  -2.0049200085749440e-03  1.5265043093016001e-03  -1.1081136480388964e-03  7.3685331472440972e-04  -3.9885128806170359e-04  7.9548533677478787e-05  -8.4744591775128301e-04  4.2251488566177062e-03  -7.5640712459670986e-03  1.0833710271762480e-02  -1.4004449600795933e-02  1.7047936373115795e-02  -1.9937439696770726e-02  2.2648185387652779e-02  -2.5157662043434344e-02  2.7445894047659049e-02  -2.9495677575581230e-02  3.1292776259369194e-02  -3.2826073752221581e-02  3.4087681098972561e-02  -3.5072997505923652e-02  3.5780723808176484e-02  -3.6212828644064915e-02  3.6374468070038898e-02  -3.6273860054129796e-02  3.5922115961356325e-02  -3.5333031801612694e-02  3.4522842598321939e-02  -3.3509943814098775e-02  3.2314584245866487e-02  -3.0958535215952033e-02  2.9464741245059912e-02  -2.7856957668602050e-02  2.6159380808420139e-02  -2.4396276444920293e-02  2.2591612320807006e-02  -2.0768700315572666e-02  1.8949853787326016e-02  -1.7156065310755753e-02  1.5406709693142300e-02  -1.3719276770227195e-02  1.2109137974194729e-02  -1.0589350142065371e-02  9.1704994470609095e-03  -7.8605876783881899e-03  6.6649624345870235e-03  -5.5862921144300077e-03  4.6245858457224613e-03  -3.7772578314577789e-03  3.0392348531054019e-03  -2.4031050102070435e-03  1.8593051326183533e-03  -1.3963436710518254e-03  1.0010553375727942e-03  -6.5888325398452588e-04  3.5418394464186798e-04  -7.0550167998141190e-05  9.0580653608300372e-04  -4.5160635879183154e-03  8.0843075831455845e-03  -1.1577497077212161e-02  1.4963557667388168e-02  -1.8211793063851615e-02  2.1293275950659066e-02  -2.4181212895836468e-02  2.6851277968050969e-02  -2.9281910218038075e-02  3.1454570733686203e-02  -3.3353955595350933e-02  3.4968161741369498e-02  -3.6288803422161571e-02  3.7311077741400162e-02  -3.8033778497952975e-02  3.8459258351509575e-02  -3.8593340123800959e-02  3.8445178789819158e-02  -3.8027076514492504e-02  3.7354253713943755e-02  -3.6444579870336190e-02  3.5318268370174252e-02  -3.3997540208644227e-02  3.2506261840643057e-02  -3.0869562866159831e-02  2.9113439485393213e-02  -2.7264349913293733e-02  2.5348808006087811e-02  -2.3392981360666840e-02  2.1422300098407992e-02  -1.9461082300683170e-02  1.7532181831088053e-02  -1.5656663896172679e-02  1.3853513246691854e-02  -1.2139379392237054e-02  1.0528362633807553e-02  -9.0318440403587465e-03  7.6583618225428973e-03  -6.4135358060745896e-03  5.3000409564535620e-03  -4.3176301288019971e-03  3.4632054443857582e-03  -2.7309369334505272e-03  2.1124263265200694e-03  -1.5969131808275033e-03  1.1715198664715642e-03  -8.2153129998913327e-04  5.3070481038429256e-04  -2.8160502169344081e-04  5.5958252267891576e-05  -9.5508852428694609e-04  4.7617000126907536e-03  -8.5233361796957004e-03  1.2204630400637115e-02  -1.5771259100638195e-02  1.9190385030590763e-02  -2.2431078680441686e-02  2.5464711645114536e-02  -2.8265316180018790e-02  3.0809905699335990e-02  -3.3078751584412189e-02  3.5055612324597543e-02  -3.6727911750120128e-02  3.8086863870545024e-02  -3.9127542681402505e-02  3.9848896089383447e-02  -4.0253704006498935e-02  4.0348481464512101e-02  -4.0143328473739470e-02  3.9651729132892062e-02  -3.8890303259419300e-02  3.7878514550676125e-02  -3.6638339907213872e-02  3.5193905155127221e-02  -3.3571092892885408e-02  3.1797128598559869e-02  -2.9900151447247385e-02  2.7908776514978789e-02  -2.5851655128921718e-02  2.3757040175645349e-02  -2.1652363034746200e-02  1.9563828640989100e-02  -1.7516034845490303e-02  1.5531621883017283e-02  -1.3630957242285399e-02  1.1831860662876158e-02  -1.0149373381747850e-02  8.5955750078894229e-03  -7.1794506655141659e-03  5.9068102552014608e-03  -4.7802608545206397e-03  3.7992324434637762e-03  -2.9600563014430081e-03  2.2560946067611432e-03  -1.6779189194166791e-03  1.2135345347645560e-03  -8.4864691209394984e-04  5.6696573779786415e-04  -3.5054162754780664e-04  1.8012991491453447e-04  -3.5575571377897033e-05  9.9493376517236398e-04  -4.9602724703229255e-03  8.8779584628223898e-03  -1.2710524945031899e-02  1.6421619349038775e-02  -1.9976476760390254e-02  2.3342369948589823e-02  -2.6489029340725317e-02  2.9389026810651423e-02  -3.2018117639584329e-02  3.4355535697101501e-02  -3.6384237582616309e-02  3.8091092262862648e-02  -3.9467013534089289e-02  4.0507033562962792e-02  -4.1210316614674752e-02  4.1580112997612238e-02  -4.1623654169216866e-02  4.1351990841720782e-02  -4.0779776779608472e-02  3.9925001799367678e-02  -3.8808678273577105e-02  3.7454486096923471e-02  -3.5888381754069575e-02  3.4138177589027499e-02  -3.2233097899180142e-02  3.0203318730272995e-02  -2.8079498555732531e-02  2.5892307072198851e-02  -2.3671959412015151e-02  2.1447762934269254e-02  -1.9247683543797151e-02  1.7097938159335992e-02  -1.5022619565248930e-02  1.3043359293891712e-02  -1.1179033634839476e-02  9.4455171566863658e-03  -7.8554873755327173e-03  6.4182833908198152e-03  -5.1398204795875709e-03  4.0225617126722173e-03  -3.0655468108539037e-03  2.2644775429435503e-03  -1.6118580351582349e-03  1.0971875754841930e-03  -7.0720262162140928e-04  4.2616394448835701e-04  -2.3618418588180424e-04  1.1759040265403758e-04  -4.9315692397761106e-05  9.3134906961314722e-06  -1.0251094043195992e-03  5.1106201309223075e-03  -9.1460974712261958e-03  1.3092208797461596e-02  -1.6910801770023649e-02  2.0565405769121102e-02  -2.4021708440230122e-02  2.7248000351341922e-02  -3.0215581190144145e-02  3.2899121548045702e-02  -3.5276975030253545e-02  3.7331436152652678e-02  -3.9048940356433109e-02  4.0420203316120548e-02  -4.1440297671267542e-02  4.2108666246464165e-02  -4.2429071811759159e-02  4.2409484371570029e-02  -4.2061907945398616e-02  4.1402149716241059e-02  -4.0449535275858581e-02  3.9226574542885841e-02  -3.7758583644406901e-02  3.6073268720112558e-02  -3.4200278195030936e-02  3.2170730500362239e-02  -3.0016724610845751e-02  2.7770840991995348e-02  -2.5465640677955887e-02  2.3133170233768197e-02  -2.0804480193322466e-02  1.8509164395761186e-02  -1.6274927243138320e-02  1.4127185487775865e-02  -1.2088710579314378e-02  1.0179316973646721e-02  -8.4156010632519627e-03  6.8107345865569685e-03  -5.3743155204774755e-03  4.1122785522405298e-03  -3.0268662792985361e-03  2.1166613439675972e-03  -1.3766787537790501e-03  7.9851667837812980e-04  -3.7056309961786454e-04  7.8254852625433066e-05  9.5615297849164019e-05  -1.7054856385023971e-04  1.6795280837657390e-04  -1.1072426103880753e-04  2.2805112973328080e-05  1.0455099759999584e-03  -5.2122175854831393e-03  9.3268168306954446e-03  -1.3348350629753451e-02  1.7237102900971860e-02  -2.0955125699455970e-02  2.4466740130182671e-02  -2.7739003616835220e-02  3.0742136619289481e-02  -3.3449902533053619e-02  3.5839935199629039e-02  -3.7894009271013419e-02  3.9598249545600553e-02  -4.0943276301606872e-02  4.1924284667717270e-02  -4.2541057047234099e-02  4.2797908647413875e-02  -4.2703567183333756e-02  4.2270988809978760e-02  -4.1517113341497297e-02  4.0462562683288794e-02  -3.9131287325815778e-02  3.7550166477931107e-02  -3.5748568137466144e-02  3.3757876006546200e-02  -3.1610990626513076e-02  2.9341812507887952e-02  -2.6984715275181616e-02  2.4574016975099571e-02  -2.2143457720337593e-02  1.9725691714269251e-02  -1.7351801453847775e-02  1.5050841535465851e-02  -1.2849419043928619e-02  1.0771316889610340e-02  -8.8371657709044593e-03  7.0641696973406613e-03  -5.4658891427605679e-03  4.0520849710787227e-03  -2.8286253653567617e-03  1.7974569637195478e-03  -9.5664041082821859e-04  3.0044951674428760e-04  1.8046777130483455e-04  -4.9886935107688293e-04  6.7064360929290320e-04  -7.1448326533913307e-04  6.5151378815786574e-04  -5.0488243591355830e-04  2.9931461422144314e-04  -6.0644717813347760e-05  -1.0561576395226051e-03  5.2651760257859037e-03  -9.4203228326283639e-03  1.3479262634326345e-02  -1.7400956135617332e-02  2.1146210661770172e-02  -2.4678203150995372e-02  2.7962967906771122e-02  -3.0969841877851456e-02  3.3671860877660657e-02  -3.6046100936096871e-02  3.8073959793837389e-02  -3.9741374460441431e-02  4.1038971753977374e-02  -4.1962149737191430e-02  4.2511089067120290e-02  -4.2690694283225777e-02  4.2510466172648941e-02  -4.1984307386066837e-02  4.1130264492113711e-02  -3.9970210620526796e-02  3.8529473761033238e-02  -3.6836416579412570e-02  3.4921974361121384e-02  -3.2819158331994933e-02  3.0562532076551435e-02  -2.8187669234209192e-02  2.5730600865825830e-02  -2.3227261046887774e-02  2.0712939254684468e-02  -1.8221747988388274e-02  1.5786113787959868e-02  -1.3436299459777975e-02  1.1199964797372799e-02  -9.1017725032887260e-03  7.1630452227318267e-03  -5.4014789026367400e-03  3.8309167013132841e-03  -2.4611867761908674e-03  1.2980062433740336e-03  -3.4295260877080058e-04  -4.0649716035173831e-04  9.5686074041528336e-04  -1.3184796492067183e-03  1.5052864384802541e-03  -1.5345137491714997e-03  1.4263500631952234e-03  -1.2035477223846709e-0