<?xml version="1.0"?>
<VTKFile type="UnstructuredGrid"  version="0.1"  >
<UnstructuredGrid>
<Piece  NumberOfPoints="2601" NumberOfCells="5000">
<Points>
<DataArray  type="Float64"  NumberOfComponents="3"  format="ascii">-10 -10 0  -9.6 -10 0  -9.199999999999999 -10 0  -8.800000000000001 -10 0  -8.4 -10 0  -8 -10 0  -7.6 -10 0  -7.2 -10 0  -6.8 -10 0  -6.4 -10 0  -6 -10 0  -5.6 -10 0  -5.2 -10 0  -4.8 -10 0  -4.4 -10 0  -4 -10 0  -3.6 -10 0  -3.2 -10 0  -2.8 -10 0  -2.4 -10 0  -2 -10 0  -1.6 -10 0  -1.199999999999999 -10 0  -0.8000000000000007 -10 0  -0.4000000000000004 -10 0  0 -10 0  0.4000000000000004 -10 0  0.8000000000000007 -10 0  1.199999999999999 -10 0  1.6 -10 0  2 -10 0  2.4 -10 0  2.800000000000001 -10 0  3.199999999999999 -10 0  3.6 -10 0  4 -10 0  4.4 -10 0  4.800000000000001 -10 0  5.199999999999999 -10 0  5.6 -10 0  6 -10 0  6.399999999999999 -10 0  6.800000000000001 -10 0  7.199999999999999 -10 0  7.600000000000001 -10 0  8 -10 0  8.399999999999999 -10 0  8.800000000000001 -10 0  9.199999999999999 -10 0  9.600000000000001 -10 0  10 -10 0  -10 -9.6 0  -9.6 -9.6 0  -9.199999999999999 -9.6 0  -8.800000000000001 -9.6 0  -8.4 -9.6 0  -8 -9.6 0  -7.6 -9.6 0  -7.2 -9.6 0  -6.8 -9.6 0  -6.4 -9.6 0  -6 -9.6 0  -5.6 -9.6 0  -5.2 -9.6 0  -4.8 -9.6 0  -4.4 -9.6 0  -4 -9.6 0  -3.6 -9.6 0  -3.2 -9.6 0  -2.8 -9.6 0  -2.4 -9.6 0  -2 -9.6 0  -1.6 -9.6 0  -1.199999999999999 -9.6 0  -0.8000000000000007 -9.6 0  -0.4000000000000004 -9.6 0  0 -9.6 0  0.4000000000000004 -9.6 0  0.8000000000000007 -9.6 0  1.199999999999999 -9.6 0  1.6 -9.6 0  2 -9.6 0  2.4 -9.6 0  2.800000000000001 -9.6 0  3.199999999999999 -9.6 0  3.6 -9.6 0  4 -9.6 0  4.4 -9.6 0  4.800000000000001 -9.6 0  5.199999999999999 -9.6 0  5.6 -9.6 0  6 -9.6 0  6.399999999999999 -9.6 0  6.800000000000001 -9.6 0  7.199999999999999 -9.6 0  7.600000000000001 -9.6 0  8 -9.6 0  8.399999999999999 -9.6 0  8.800000000000001 -9.6 0  9.199999999999999 -9.6 0  9.600000000000001 -9.6 0  10 -9.6 0  -10 -9.199999999999999 0  -9.6 -9.199999999999999 0  -9.199999999999999 -9.199999999999999 0  -8.800000000000001 -9.199999999999999 0  -8.4 -9.199999999999999 0  -8 -9.199999999999999 0  -7.6 -9.199999999999999 0  -7.2 -9.199999999999999 0  -6.8 -9.199999999999999 0  -6.4 -9.199999999999999 0  -6 -9.199999999999999 0  -5.6 -9.199999999999999 0  -5.2 -9.199999999999999 0  -4.8 -9.199999999999999 0  -4.4 -9.199999999999999 0  -4 -9.199999999999999 0  -3.6 -9.199999999999999 0  -3.2 -9.199999999999999 0  -2.8 -9.199999999999999 0  -2.4 -9.199999999999999 0  -2 -9.199999999999999 0  -1.6 -9.199999999999999 0  -1.199999999999999 -9.199999999999999 0  -0.8000000000000007 -9.199999999999999 0  -0.4000000000000004 -9.199999999999999 0  0 -9.199999999999999 0  0.4000000000000004 -9.199999999999999 0  0.8000000000000007 -9.199999999999999 0  1.199999999999999 -9.199999999999999 0  1.6 -9.199999999999999 0  2 -9.199999999999999 0  2.4 -9.199999999999999 0  2.800000000000001 -9.199999999999999 0  3.199999999999999 -9.199999999999999 0  3.6 -9.199999999999999 0  4 -9.199999999999999 0  4.4 -9.199999999999999 0  4.800000000000001 -9.199999999999999 0  5.199999999999999 -9.199999999999999 0  5.6 -9.199999999999999 0  6 -9.199999999999999 0  6.399999999999999 -9.199999999999999 0  6.800000000000001 -9.199999999999999 0  7.199999999999999 -9.199999999999999 0  7.600000000000001 -9.199999999999999 0  8 -9.199999999999999 0  8.399999999999999 -9.199999999999999 0  8.800000000000001 -9.199999999999999 0  9.199999999999999 -9.199999999999999 0  9.600000000000001 -9.199999999999999 0  10 -9.199999999999999 0  -10 -8.800000000000001 0  -9.6 -8.800000000000001 0  -9.199999999999999 -8.800000000000001 0  -8.800000000000001 -8.800000000000001 0  -8.4 -8.800000000000001 0  -8 -8.800000000000001 0  -7.6 -8.800000000000001 0  -7.2 -8.800000000000001 0  -6.8 -8.800000000000001 0  -6.4 -8.800000000000001 0  -6 -8.800000000000001 0  -5.6 -8.800000000000001 0  -5.2 -8.800000000000001 0  -4.8 -8.800000000000001 0  -4.4 -8.800000000000001 0  -4 -8.800000000000001 0  -3.6 -8.800000000000001 0  -3.2 -8.800000000000001 0  -2.8 -8.800000000000001 0  -2.4 -8.800000000000001 0  -2 -8.800000000000001 0  -1.6 -8.800000000000001 0  -1.199999999999999 -8.800000000000001 0  -0.8000000000000007 -8.800000000000001 0  -0.4000000000000004 -8.800000000000001 0  0 -8.800000000000001 0  0.4000000000000004 -8.800000000000001 0  0.8000000000000007 -8.800000000000001 0  1.199999999999999 -8.800000000000001 0  1.6 -8.800000000000001 0  2 -8.800000000000001 0  2.4 -8.800000000000001 0  2.800000000000001 -8.800000000000001 0  3.199999999999999 -8.800000000000001 0  3.6 -8.800000000000001 0  4 -8.800000000000001 0  4.4 -8.800000000000001 0  4.800000000000001 -8.800000000000001 0  5.199999999999999 -8.800000000000001 0  5.6 -8.800000000000001 0  6 -8.800000000000001 0  6.399999999999999 -8.800000000000001 0  6.800000000000001 -8.800000000000001 0  7.199999999999999 -8.800000000000001 0  7.600000000000001 -8.800000000000001 0  8 -8.800000000000001 0  8.399999999999999 -8.800000000000001 0  8.800000000000001 -8.800000000000001 0  9.199999999999999 -8.800000000000001 0  9.600000000000001 -8.800000000000001 0  10 -8.800000000000001 0  -10 -8.4 0  -9.6 -8.4 0  -9.199999999999999 -8.4 0  -8.800000000000001 -8.4 0  -8.4 -8.4 0  -8 -8.4 0  -7.6 -8.4 0  -7.2 -8.4 0  -6.8 -8.4 0  -6.4 -8.4 0  -6 -8.4 0  -5.6 -8.4 0  -5.2 -8.4 0  -4.8 -8.4 0  -4.4 -8.4 0  -4 -8.4 0  -3.6 -8.4 0  -3.2 -8.4 0  -2.8 -8.4 0  -2.4 -8.4 0  -2 -8.4 0  -1.6 -8.4 0  -1.199999999999999 -8.4 0  -0.8000000000000007 -8.4 0  -0.4000000000000004 -8.4 0  0 -8.4 0  0.4000000000000004 -8.4 0  0.8000000000000007 -8.4 0  1.199999999999999 -8.4 0  1.6 -8.4 0  2 -8.4 0  2.4 -8.4 0  2.800000000000001 -8.4 0  3.199999999999999 -8.4 0  3.6 -8.4 0  4 -8.4 0  4.4 -8.4 0  4.800000000000001 -8.4 0  5.199999999999999 -8.4 0  5.6 -8.4 0  6 -8.4 0  6.399999999999999 -8.4 0  6.800000000000001 -8.4 0  7.199999999999999 -8.4 0  7.600000000000001 -8.4 0  8 -8.4 0  8.399999999999999 -8.4 0  8.800000000000001 -8.4 0  9.199999999999999 -8.4 0  9.600000000000001 -8.4 0  10 -8.4 0  -10 -8 0  -9.6 -8 0  -9.199999999999999 -8 0  -8.800000000000001 -8 0  -8.4 -8 0  -8 -8 0  -7.6 -8 0  -7.2 -8 0  -6.8 -8 0  -6.4 -8 0  -6 -8 0  -5.6 -8 0  -5.2 -8 0  -4.8 -8 0  -4.4 -8 0  -4 -8 0  -3.6 -8 0  -3.2 -8 0  -2.8 -8 0  -2.4 -8 0  -2 -8 0  -1.6 -8 0  -1.199999999999999 -8 0  -0.8000000000000007 -8 0  -0.4000000000000004 -8 0  0 -8 0  0.4000000000000004 -8 0  0.8000000000000007 -8 0  1.199999999999999 -8 0  1.6 -8 0  2 -8 0  2.4 -8 0  2.800000000000001 -8 0  3.199999999999999 -8 0  3.6 -8 0  4 -8 0  4.4 -8 0  4.800000000000001 -8 0  5.199999999999999 -8 0  5.6 -8 0  6 -8 0  6.399999999999999 -8 0  6.800000000000001 -8 0  7.199999999999999 -8 0  7.600000000000001 -8 0  8 -8 0  8.399999999999999 -8 0  8.800000000000001 -8 0  9.199999999999999 -8 0  9.600000000000001 -8 0  10 -8 0  -10 -7.6 0  -9.6 -7.6 0  -9.199999999999999 -7.6 0  -8.800000000000001 -7.6 0  -8.4 -7.6 0  -8 -7.6 0  -7.6 -7.6 0  -7.2 -7.6 0  -6.8 -7.6 0  -6.4 -7.6 0  -6 -7.6 0  -5.6 -7.6 0  -5.2 -7.6 0  -4.8 -7.6 0  -4.4 -7.6 0  -4 -7.6 0  -3.6 -7.6 0  -3.2 -7.6 0  -2.8 -7.6 0  -2.4 -7.6 0  -2 -7.6 0  -1.6 -7.6 0  -1.199999999999999 -7.6 0  -0.8000000000000007 -7.6 0  -0.4000000000000004 -7.6 0  0 -7.6 0  0.4000000000000004 -7.6 0  0.8000000000000007 -7.6 0  1.199999999999999 -7.6 0  1.6 -7.6 0  2 -7.6 0  2.4 -7.6 0  2.800000000000001 -7.6 0  3.199999999999999 -7.6 0  3.6 -7.6 0  4 -7.6 0  4.4 -7.6 0  4.800000000000001 -7.6 0  5.199999999999999 -7.6 0  5.6 -7.6 0  6 -7.6 0  6.399999999999999 -7.6 0  6.800000000000001 -7.6 0  7.199999999999999 -7.6 0  7.600000000000001 -7.6 0  8 -7.6 0  8.399999999999999 -7.6 0  8.800000000000001 -7.6 0  9.199999999999999 -7.6 0  9.600000000000001 -7.6 0  10 -7.6 0  -10 -7.2 0  -9.6 -7.2 0  -9.199999999999999 -7.2 0  -8.800000000000001 -7.2 0  -8.4 -7.2 0  -8 -7.2 0  -7.6 -7.2 0  -7.2 -7.2 0  -6.8 -7.2 0  -6.4 -7.2 0  -6 -7.2 0  -5.6 -7.2 0  -5.2 -7.2 0  -4.8 -7.2 0  -4.4 -7.2 0  -4 -7.2 0  -3.6 -7.2 0  -3.2 -7.2 0  -2.8 -7.2 0  -2.4 -7.2 0  -2 -7.2 0  -1.6 -7.2 0  -1.199999999999999 -7.2 0  -0.8000000000000007 -7.2 0  -0.4000000000000004 -7.2 0  0 -7.2 0  0.4000000000000004 -7.2 0  0.8000000000000007 -7.2 0  1.199999999999999 -7.2 0  1.6 -7.2 0  2 -7.2 0  2.4 -7.2 0  2.800000000000001 -7.2 0  3.199999999999999 -7.2 0  3.6 -7.2 0  4 -7.2 0  4.4 -7.2 0  4.800000000000001 -7.2 0  5.199999999999999 -7.2 0  5.6 -7.2 0  6 -7.2 0  6.399999999999999 -7.2 0  6.800000000000001 -7.2 0  7.199999999999999 -7.2 0  7.600000000000001 -7.2 0  8 -7.2 0  8.399999999999999 -7.2 0  8.800000000000001 -7.2 0  9.199999999999999 -7.2 0  9.600000000000001 -7.2 0  10 -7.2 0  -10 -6.8 0  -9.6 -6.8 0  -9.199999999999999 -6.8 0  -8.800000000000001 -6.8 0  -8.4 -6.8 0  -8 -6.8 0  -7.6 -6.8 0  -7.2 -6.8 0  -6.8 -6.8 0  -6.4 -6.8 0  -6 -6.8 0  -5.6 -6.8 0  -5.2 -6.8 0  -4.8 -6.8 0  -4.4 -6.8 0  -4 -6.8 0  -3.6 -6.8 0  -3.2 -6.8 0  -2.8 -6.8 0  -2.4 -6.8 0  -2 -6.8 0  -1.6 -6.8 0  -1.199999999999999 -6.8 0  -0.8000000000000007 -6.8 0  -0.4000000000000004 -6.8 0  0 -6.8 0  0.4000000000000004 -6.8 0  0.8000000000000007 -6.8 0  1.199999999999999 -6.8 0  1.6 -6.8 0  2 -6.8 0  2.4 -6.8 0  2.800000000000001 -6.8 0  3.199999999999999 -6.8 0  3.6 -6.8 0  4 -6.8 0  4.4 -6.8 0  4.800000000000001 -6.8 0  5.199999999999999 -6.8 0  5.6 -6.8 0  6 -6.8 0  6.399999999999999 -6.8 0  6.800000000000001 -6.8 0  7.199999999999999 -6.8 0  7.600000000000001 -6.8 0  8 -6.8 0  8.399999999999999 -6.8 0  8.800000000000001 -6.8 0  9.199999999999999 -6.8 0  9.600000000000001 -6.8 0  10 -6.8 0  -10 -6.4 0  -9.6 -6.4 0  -9.199999999999999 -6.4 0  -8.800000000000001 -6.4 0  -8.4 -6.4 0  -8 -6.4 0  -7.6 -6.4 0  -7.2 -6.4 0  -6.8 -6.4 0  -6.4 -6.4 0  -6 -6.4 0  -5.6 -6.4 0  -5.2 -6.4 0  -4.8 -6.4 0  -4.4 -6.4 0  -4 -6.4 0  -3.6 -6.4 0  -3.2 -6.4 0  -2.8 -6.4 0  -2.4 -6.4 0  -2 -6.4 0  -1.6 -6.4 0  -1.199999999999999 -6.4 0  -0.8000000000000007 -6.4 0  -0.4000000000000004 -6.4 0  0 -6.4 0
[...]
<PointData  Scalars="f_49"> 
<DataArray  type="Float64"  Name="f_49"  format="ascii">2.7255537165359451e-05  -1.8994607943613665e-04  3.4053493717100169e-04  -4.8504592294307800e-04  6.2197272990691848e-04  -7.4927015121229530e-04  8.6498010317853603e-04  -9.6731579694792752e-04  1.0546961115989071e-03  -1.1257704636216869e-03  1.1794400285725652e-03  -1.2148755340036545e-03  1.2315289215972854e-03  -1.2291428910604497e-03  1.2077543280090270e-03  -1.1676937584572844e-03  1.1095806967588197e-03  -1.0343135437361466e-03  9.4305590245705379e-04  -8.3721870167817382e-04  7.1843816469676605e-04  -5.8855061422176489e-04  4.4956398437654424e-04  -3.0362722531167920e-04  1.5299619176056982e-04  -2.9302296369954001e-11  -1.5299622141084823e-04  3.0362709109927667e-04  -4.4956387821678536e-04  5.8855052372021896e-04  -7.1843815570842408e-04  8.3721875012049451e-04  -9.4305591244410502e-04  1.0343134148777370e-03  -1.1095805245225419e-03  1.1676934427003384e-03  -1.2077539223590383e-03  1.2291424701031711e-03  -1.2315284574334765e-03  1.2148750467437033e-03  -1.1794396758614059e-03  1.1257699130674270e-03  -1.0546955179843995e-03  9.6731532049288652e-04  -8.6497970205564017e-04  7.4926985567238928e-04  -6.2197248170721463e-04  4.8504563366123457e-04  -3.4053477962775464e-04  1.8994597832641151e-04  -2.7255567738969924e-05  -1.8994603280637413e-04  9.4990792866443121e-04  -1.6951842577772652e-03  2.4140239328450845e-03  -3.0954469664126434e-03  3.7289772580687730e-03  -4.3048423371338284e-03  4.8141475231392571e-03  -5.2490224319048685e-03  5.6027456522277268e-03  -5.8698494295685898e-03  6.0462048737191625e-03  -6.1290856308448298e-03  6.1172106309774574e-03  -6.0107635203800859e-03  5.8113899599698060e-03  -5.5221723494751985e-03  5.1475821270636542e-03  -4.6934103573001065e-03  4.1666788227397843e-03  -3.5755304892137970e-03  2.9291044691239681e-03  -2.2373945141819247e-03  1.5110946513513059e-03  -7.6143329089266786e-04  1.5201292528388451e-10  7.6143294420670353e-04  -1.5110944224099975e-03  2.2373943368866208e-03  -2.9291042108168627e-03  3.5755302561781637e-03  -4.1666784510207200e-03  4.6934099886662816e-03  -5.1475814688673209e-03  5.5221714272835967e-03  -5.8113885822832076e-03  6.0107619337847838e-03  -6.1172086754971468e-03  6.1290834016594744e-03  -6.0462024438401553e-03  5.8698471018822206e-03  -5.6027432145691718e-03  5.2490198379640069e-03  -4.8141451658823579e-03  4.3048402152219955e-03  -3.7289755134951664e-03  3.0954455357490645e-03  -2.4140227885823830e-03  1.6951833731821172e-03  -9.4990746474066538e-04  1.8994598359063536e-04  3.4053496342708358e-04  -1.6951843441301961e-03  3.0238552284073588e-03  -4.3057773423761433e-03  5.5211027457345808e-03  -6.6510498286327458e-03  7.6781588193620496e-03  -8.5865561986064251e-03  9.3622010335909327e-03  -9.9931037080513256e-03  1.0469511902619468e-02  -1.0784060522863570e-02  1.0931887188649809e-02  -1.0910706788198297e-02  1.0720846784268514e-02  -1.0365242436340004e-02  9.8493915958701994e-03  -9.1812694288161256e-03  8.3712050523257388e-03  -7.4317222095488487e-03  6.3773452591199941e-03  -5.2243745719099911e-03  3.9906350089048033e-03  -2.6952005819266944e-03  1.3580985414975953e-03  -2.3111822479913829e-10  -1.3580980706094006e-03  2.6952002573617600e-03  -3.9906347867172129e-03  5.2243740827847942e-03  -6.3773447692592085e-03  7.4317215209950150e-03  -8.3712041895646887e-03  9.1812681044273516e-03  -9.8493899772450835e-03  1.0365240172740625e-02  -1.0720843970898253e-02  1.0910703495126404e-02  -1.0931883326442893e-02  1.0784056287187364e-02  -1.0469507593014189e-02  9.9930994247526914e-03  -9.3621966234614159e-03  8.5865518869610840e-03  -7.6781550032931026e-03  6.6510465328742984e-03  -5.5210999938410110e-03  4.3057752082967266e-03  -3.0238536841675780e-03  1.6951834602956179e-03  -3.4053477170412424e-04  -4.8504597323090692e-04  2.4140240189932682e-03  -4.3057774790217721e-03  6.1309933654130257e-03  -7.8614243108143904e-03  9.4703106287820447e-03  -1.0932778938944144e-02  1.2226221414413355e-02  -1.3330642903663349e-02  1.4228970695251102e-02  -1.4907317145258722e-02  1.5355195871696122e-02  -1.5565682824376174e-02  1.5535524178380781e-02  -1.5265186481941934e-02  1.4758848966132321e-02  -1.4024339881515200e-02  1.3073014809774665e-02  -1.1919581343414330e-02  1.0581871661779822e-02  -9.0805666034204629e-03  7.4388760525674544e-03  -5.6821805305268041e-03  3.8376388478915387e-03  -1.9337674889917350e-03  3.7853458399099391e-11  1.9337673154907772e-03  -3.8376386995279043e-03  5.6821804309822969e-03  -7.4388756849690365e-03  9.0805658538900130e-03  -1.0581870618535608e-02  1.1919579994427647e-02  -1.3073012850684384e-02  1.4024337534013036e-02  -1.4758845784830740e-02  1.5265182548941979e-02  -1.5535519670077666e-02  1.5565677610090225e-02  -1.5355190100734809e-02  1.4907311463260527e-02  -1.4228964780744568e-02  1.3330637090322894e-02  -1.2226215671515574e-02  1.0932773616239837e-02  -9.4703059098925988e-03  7.8614203819575342e-03  -6.1309902383638185e-03  4.3057752391271378e-03  -2.4140228286689551e-03  4.8504565906257099e-04  6.2197275577585318e-04  -3.0954470201379116e-03  5.5211027507374834e-03  -7.8614243621659037e-03  1.0080216159947929e-02  -1.2143167768572475e-02  1.4018384023337216e-02  -1.5676873359030171e-02  1.7092996285608963e-02  -1.8244860078130292e-02  1.9114657457566991e-02  -1.9688941539233562e-02  1.9958834318244040e-02  -1.9920163545868168e-02  1.9573527380563147e-02  -1.8924284618793492e-02  1.7982472745578952e-02  -1.6762652276666037e-02  1.5283681614529407e-02  -1.3568425966940309e-02  1.1643402811842955e-02  -9.5383727611274144e-03  7.2858796792324388e-03  -4.9207472925133500e-03  2.4795403693564388e-03  1.5145845078427409e-10  -2.4795405789536074e-03  4.9207474753502692e-03  -7.2858798125205182e-03  9.5383724540196481e-03  -1.1643401892916783e-02  1.3568424566815970e-02  -1.5283679811571959e-02  1.6762649724069215e-02  -1.7982469601142900e-02  1.8924280452975655e-02  -1.9573522379132503e-02  1.9920157939452132e-02  -1.9958827776032469e-02  1.9688934155108102e-02  -1.9114649875735332e-02  1.8244852685087944e-02  -1.7092989097672401e-02  1.5676866515723937e-02  -1.4018377548120213e-02  1.2143162087488600e-02  -1.0080211215036947e-02  7.8614205266623501e-03  -5.5210999970755356e-03  3.0954453657317405e-03  -6.2197241498947598e-04  -7.4927022857039071e-04  3.7289774473201745e-03  -6.6510501559270321e-03  9.4703109154809784e-03  -1.2143167956221206e-02  1.4628294643713386e-02  -1.6887268220693457e-02  1.8885164132321594e-02  -2.0591094567103545e-02  2.1978686140631119e-02  -2.3026486813481399e-02  2.3718297615451699e-02  -2.4043423616206080e-02  2.3996838572028115e-02  -2.3579262747012816e-02  2.2797151948141452e-02  -2.1662597627615746e-02  2.0193139962367754e-02  -1.8411497076090997e-02  1.6345213079213598e-02  -1.4026232479814590e-02  1.1490406639561138e-02  -8.7769393891736439e-03  5.9277810354783382e-03  -2.9869795420076196e-03  -4.2519391345668702e-10  2.9869804411387685e-03  -5.9277818684785773e-03  8.7769399933684388e-03  -1.1490406596245688e-02  1.4026231764625906e-02  -1.6345211587761768e-02  1.8411494915088561e-02  -2.0193137053590136e-02  2.1662593725297320e-02  -2.2797147069668441e-02  2.3579256856521139e-02  -2.3996831942706225e-02  2.4043416074596563e-02  -2.3718289147094198e-02  2.3026477950920346e-02  -2.1978677474210600e-02  2.0591086340650034e-02  -1.8885156194449675e-02  1.6887260813008186e-02  -1.4628288091904550e-02  1.2143162301453946e-02  -9.4703062009764555e-03  6.6510467276193006e-03  -3.7289754064334778e-03  7.4926979683104494e-04  8.6498012469100351e-04  -4.3048424572241697e-03  7.6781593605800731e-03  -1.0932779463646429e-02  1.4018384422399393e-02  -1.6887268585137900e-02  1.9495077004281221e-02  -2.1801492226760501e-02  2.3770856588632063e-02  -2.5372723607814791e-02  2.6582328443842233e-02  -2.7380970531440601e-02  2.7756303079102301e-02  -2.7702523857189944e-02  2.7220464156340357e-02  -2.6317576530698356e-02  2.5007819739694546e-02  -2.3311442691861351e-02  2.1254671452952244e-02  -1.8869303719655946e-02  1.6192217183784233e-02  -1.3264799281476008e-02  1.0132308043033248e-02  -6.8431716336241153e-03  3.4482401326804100e-03  9.9535582709308715e-10  -3.4482418474051225e-03  6.8431731543333188e-03  -1.0132309088376945e-02  1.3264799771449337e-02  -1.6192216874221219e-02  1.8869302633243604e-02  -2.1254669424583001e-02  2.3311439514784437e-02  -2.5007815362257841e-02  2.6317570932031336e-02  -2.7220457353173699e-02  2.7702516283308047e-02  -2.7756294715677938e-02  2.7380961244981891e-02  -2.6582318586721693e-02  2.5372713957627333e-02  -2.3770847159166632e-02  2.1801483222075164e-02  -1.9495068651995680e-02  1.6887260982108677e-02  -1.4018377821931851e-02  1.0932774075623810e-02  -7.6781553614104466e-03  4.3048402931829032e-03  -8.6497966339917466e-04  -9.6731583212562161e-04  4.8141478467246196e-03  -8.5865568035199819e-03  1.2226222139428020e-02  -1.5676874135645325e-02  1.8885164770978805e-02  -2.1801492582432330e-02  2.4380770603171949e-02  -2.6583122710009364e-02  2.8374500487614418e-02  -2.9727208936537262e-02  3.0620335216240965e-02  -3.1040071905018993e-02  3.0979929760582996e-02  -3.0440838490561152e-02  2.9431132807525948e-02  -2.7966422311282504e-02  2.6069351694477692e-02  -2.3769249668339081e-02  2.1101675767874712e-02  -1.8107870731839663e-02  1.4834118464580664e-02  -1.1331031438558835e-02  7.6527669671373078e-03  -3.8561909615111023e-03  -1.3998836855935390e-09  3.8561936736488944e-03  -7.6527692413635049e-03  1.1331033239586298e-02  -1.4834119748604621e-02  1.8107871000688523e-02  -2.1101674905305630e-02  2.3769247458971233e-02  -2.6069348166960271e-02  2.7966417313395036e-02  -2.9431126446424032e-02  3.0440831114332916e-02  -3.0979921296276490e-02  3.1040062537824643e-02  -3.0620325105822396e-02  2.9727198317439342e-02  -2.8374489768820659e-02  2.6583112247501782e-02  -2.4380760559776279e-02  2.1801483211651616e-02  -1.8885156217006378e-02  1.5676866897468951e-02  -1.2226216266071887e-02  8.5865524318421583e-03  -4.8141453611686286e-03  9.6731536003913929e-04  1.0546961808322857e-03  -5.2490228516716957e-03  9.3622018460722042e-03  -1.3330643980057632e-02  1.7092997396332372e-02  -2.0591095543631331e-02  2.3770857264564006e-02  -2.6583123034893946e-02  2.8984414939788445e-02  -3.0937609008046235e-02  3.2412508473217222e-02  -3.3386311356032275e-02  3.3843962703552437e-02  -3.3778387353472585e-02  3.3190599056730739e-02  -3.2089685083503384e-02  3.0492665362666711e-02  -2.8424229773767164e-02  2.5916356518868817e-02  -2.3007816991658228e-02  1.9743577434380578e-02  -1.6174102999183218e-02  1.2354577460185151e-02  -8.3440505800507232e-03  4.2045251325041741e-03  1.9535832033291530e-09  -4.2045290066316104e-03  8.3440539909830115e-03  -1.2354580096405334e-02  1.6174104708244184e-02  -1.9743578028567486e-02  2.3007816153966926e-02  -2.5916353914510290e-02  2.8424225874137635e-02  -3.0492660063455867e-02  3.2089678441362353e-02  -3.3190591201136058e-02  3.3778378278078836e-02  -3.3843952564815330e-02  3.3386300363335966e-02  -3.2412496919565902e-02  3.0937597456047076e-02  -2.8984403687015273e-02  2.6583112256278435e-02  -2.3770847226305514e-02  2.0591086458794410e-02  -1.7092989573401798e-02  1.3330637716496441e-02  -9.3621972441735469e-03  5.2490202573436872e-03  -1.0546955810062015e-03  -1.1257704772006311e-03  5.6027461277094624e-03  -9.9931048245509788e-03  1.4228972097330345e-02  -1.8244861459465796e-02  2.1978687452940099e-02  -2.5372724638204829e-02  2.8374501102982494e-02  -3.0937609229432016e-02  3.3022423370273273e-02  -3.4596711991410165e-02  3.5636136467192839e-02  -3.6124627351954312e-02  3.6054632615490446e-02  -3.5427234315349464e-02  3.4252132047996708e-02  -3.2547492893143695e-02  3.0339670434005071e-02  -2.7662797479830324e-02  2.4558258347128620e-02  -2.1074049426885965e-02  1.7264036564125541e-02  -1.3187122281470410e-02  8.9063356028301864e-03  -4.4878574994096374e-03  -2.6579422539322656e-09  4.4878625144980132e-03  -8.9063399819703376e-03  1.3187125758219100e-02  -1.7264038862250409e-02  2.1074050322191264e-02  -2.4558257639230266e-02  2.7662794979004045e-02  -3.0339666440194531e-02  3.2547487594739813e-02  -3.4252125395869353e-02  3.5427226292783318e-02  -3.6054623286967777e-02  3.6124616807580154e-02  -3.5636125048379222e-02  3.4596699945512108e-02  -3.3022411190804152e-02  3.0937597327343903e-02  -2.8374489570637644e-02  2.5372713843064700e-02  -2.1978677709874616e-02  1.8244853200893443e-02  -1.4228965416296801e-02  9.9931000689673175e-03  -5.6027436427623931e-03  1.1257699924060276e-03  1.1794402411707781e-03  -5.8698502422188060e-03  1.0469513256040321e-02  -1.4907319016380895e-02  1.9114659223730276e-02  -2.3026488506815185e-02  2.6582329867964494e-02  -2.9727209977579081e-02  3.2412509007663903e-02  -3.4596712270763233e-02  3.6246051886982704e-02  -3.7335028575808511e-02  3.7846807027496196e-02  -3.7773474980094833e-02  3.7116166133877582e-02  -3.5885042586043907e-02  3.4099137425398184e-02  -3.1786060900441351e-02  2.8981572536782491e-02  -2.5729029935570490e-02  2.2078717294411427e-02  -1.8087068536960488e-02  1.3815794477924298e-02  -9.3309289853175537e-03  4.7018076827840269e-03  3.1200049467196278e-09  -4.7018137613987184e-03  9.3309345450402516e-03  -1.3815799130583169e-02  1.8087071925417253e-02  -2.2078719068305167e-02  2.5729029787813360e-02  -2.8981570526713480e-02  3.1786057193897210e-02  -3.4099132307763257e-02  3.5885035858868999e-02  -3.7116157786261497e-02  3.7773465107050160e-02  -3.7846795948191722e-02  3.7335016667607288e-02  -3.6246039350326095e-02  3.4596699620857312e-02  -3.2412496505361085e-02  2.9727197835412965e-02  -2.6582318369521712e-02  2.3026478172175079e-02  -1.9114650319716233e-02  1.4907311780229915e-02  -1.0469508111296615e-02  5.8698474359356904e-03  -1.1794396884648878e-03  -1.2148756911778992e-03  6.0462057550319187e-03  -1.0784062127834582e-02  1.5355198060772870e-02  -1.9688943811790632e-02  2.3718299901885741e-02  -2.7380972597955442e-02  3.0620336978203749e-02  -3.3386312604633567e-02  3.5636137486819049e-02  -3.7335029255348672e-02  3.8456722803084022e-02  -3.8983876799430918e-02  3.8908341148777982e-02  -3.8231283801949012e-02  3.6963171977112415e-02  -3.5123610886238277e-02  3.2741040010531131e-02  -2.9852293630914784e-02  2.6502031767256483e-02  -2.2742049257284066e-02  1.8630475488593704e-02  -1.4230875390288422e-02  9.6112666558074000e-03  -4.8430682516808696e-03  -3.6467598827711202e-09  4.8430754849210379e-03  -9.6112732818952884e-03  1.4230881014488836e-02  -1.8630479660210943e-02  2.2742051693421122e-02  -2.6502032203641491e-02  2.9852292181037597e-02  -3.2741036835914866e-02  3.5123605903365218e-02  -3.6963165080455031e-02  3.8231275000516624e-02  -3.8908330750848638e-02  3.8983865098075957e-02  -3.8456710291954167e-02  3.7335016134714467e-02  -3.5636124105349685e-02  3.3386299478792646e-02  -3.0620324186701429e-02  2.7380960478880955e-02  -2.3718289045731582e-02  1.9688934426262950e-02  -1.5355190548127822e-02  1.0784056941969905e-02  -6.0462028414886007e-03  1.2148751577455554e-03  1.2315291415469164e-03  -6.1290865901159246e-03  1.0931889001997565e-02  -1.5565685137102304e-02  1.9958837003963881e-02  -2.4043426402732038e-02  2.7756305981228021e-02  -3.1040074391595826e-02  3.3843964804863721e-02  -3.6124629222276897e-02  3.7846808559323000e-02  -3.8983877535351853e-02  3.9518257223671228e-02  -3.9441685906060925e-02  3.8755347244400724e-02  -3.7469852204618598e-02  3.5605074709143612e-02  -3.3189844049827319e-02  3.0261499450442590e-02  -2.6865313112429120e-02  2.3053789818193060e-02  -1.8885855926197327e-02  1.4425947351990053e-02  -9.7430145177790761e-03  4.9094550819395646e-03  4.1423330827300465e-09  -4.9094633800714901e-03  9.7430222487065836e-03  -1.4425954091958425e-02  1.8885861128496891e-02  -2.3053793380462220e-02  2.6865314479761617e-02  -3.0261498845863658e-02  3.3189841429453540e-02  -3.5605070055709946e-02  3.7469845422331977e-02  -3.8755338272852845e-02  3.9441674945667297e-02  -3.9518245027926543e-02  3.8983864442821550e-02  -3.7846794702483734e-02  3.6124615393998818e-02  -3.3843951057378772e-02  3.1040060905618505e-02  -2.7756293324971051e-02  2.4043415034266252e-02  -1.9958827333370829e-02  1.5565677537060167e-02  -1.0931883652021411e-02  6.1290837771237651e-03  -1.2315285384462223e-03  -1.2291431047263160e-03  6.1172116567088748e-03  -1.0910708633325978e-02  1.5535526838709259e-02  -1.9920166647327816e-02  2.3996841987994167e-02  -2.7702527294262896e-02  3.0979932804405787e-02  -3.3778390185317045e-02  3.6054635212380212e-02  -3.7773477251806332e-02  3.8908342750176080e-02  -3.9441686664394536e-02  3.9365263444553891e-02  -3.8680254641890628e-02  3.7397250276009070e-02  -3.5536085684880717e-02  3.3125534513157098e-02  -3.0202863686990742e-02  2.6813257754562388e-02  -2.3009119789366830e-02  1.8849261639248771e-02  -1.4397994794670353e-02  9.7241355700298428e-03  -4.8999417376016704e-03  -4.9256542487737332e-09  4.8999514269335949e-03  -9.7241445724425106e-03  1.4398002739373694e-02  -1.8849268008294437e-02  2.3009124223914171e-02  -2.6813260146912293e-02  3.0202864006606201e-02  -3.3125532493158763e-02  3.5536081277256250e-02  -3.7397243473144909e-02  3.8680245607028173e-02  -3.9365252582247830e-02  3.9441674355426302e-02  -3.8908329373795743e-02  3.7773463109537567e-02  -3.6054620840867940e-02  3.3778375927951944e-02  -3.0979918850944088e-02  2.7702514112486202e-02  -2.3996830034015874e-02  1.9920156700916649e-02  -1.5535518901460826e-02  1.0910703163454806e-02  -6.1172087279795151e-03  1.2291425115273414e-03  1.2077544927160491e-03  -6.0107646118865710e-03  1.0720848721620557e-02  -1.5265189179647172e-02  1.9573530813734370e-02  -2.3579266649968598e-02  2.7220467989495508e-02  -3.0440842176843008e-02  3.3190602418927032e-02  -3.5427237614832290e-02  3.7116169349498351e-02  -3.8231286417241106e-02  3.8755349202732652e-02  -3.8680255625725871e-02  3.8007166650386712e-02  -3.6746488192430558e-02  3.4917710183763308e-02  -3.2549105659067698e-02  2.9677292987940591e-02  -2.6346670633989686e-02  2.2608729686011835e-02  -1.8521258539117822e-02  1.4147449554907475e-02  -9.5549216489474783e-03  4.8146752479766540e-03  5.6860918129181763e-09  -4.8146864625084572e-03  9.5549321253293809e-03  -1.4147458632805797e-02  1.8521265931566156e-02  -2.2608735267634954e-02  2.6346674149760739e-02  -2.9677294191166374e-02  3.2549104280554228e-02  -3.4917706161810835e-02  3.6746481489186807e-02  -3.8007157782865092e-02  3.8680244769277783e-02  -3.8755336619698419e-02  3.8231272574008102e-02  -3.7116154781317419e-02  3.5427222878146633e-02  -3.3190587752225865e-02  3.0440827902894596e-02  -2.7220454390365804e-02  2.3579254286971892e-02  -1.9573520361039331e-02  1.5265181119436708e-02  -1.0720843022074811e-02  6.0107615069073233e-03  -1.2077538447285794e-03  -1.1676939720709912e-03  5.8113911435330673e-03  -1.0365244436044993e-02  1.4758851926458667e-02  -1.8924288290722905e-02  2.2797156123490037e-02  -2.6317580916058458e-02  2.9431136943690119e-02  -3.2089689089764020e-02  3.4252136225844367e-02  -3.5885046715814349e-02  3.6963175720160564e-02  -3.7469855305401936e-02  3.7397252477529230e-02  -3.6746489281829400e-02  3.5527626536180780e-02  -3.3759507940147010e-02  3.1469468605592708e-02  -2.8692912483789166e-02  2.5472765096189409e-02  -2.1858809556373381e-02  1.7906917530515040e-02  -1.3678185327270812e-02  9.2379888722600272e-03  -4.6549738575495962e-03  -6.6713033184404695e-09  4.6549869641606010e-03  -9.2380010825918006e-03  1.3678195843067616e-02  -1.7906926271395614e-02  2.1858816256408981e-02  -2.5472769569772988e-02  2.8692914479713047e-02  -3.1469468153773328e-02  3.3759504630484563e-02  -3.5527620398906973e-02  3.6746480546708038e-02  -3.7397241568712956e-02  3.7469842508526328e-02  -3.6963161481151904e-02  3.5885031616577807e-02  -3.4252120869692274e-02  3.2089673862410781e-02  -2.9431122020631997e-02  2.6317566971168604e-02  -2.2797143631887822e-02  1.8924277789740221e-02  -1.4758843678497962e-