<?xml version="1.0"?>
<VTKFile type="UnstructuredGrid"  version="0.1"  >
<UnstructuredGrid>
<Piece  NumberOfPoints="2601" NumberOfCells="5000">
<Points>
<DataArray  type="Float64"  NumberOfComponents="3"  format="ascii">-10 -10 0  -9.6 -10 0  -9.199999999999999 -10 0  -8.800000000000001 -10 0  -8.4 -10 0  -8 -10 0  -7.6 -10 0  -7.2 -10 0  -6.8 -10 0  -6.4 -10 0  -6 -10 0  -5.6 -10 0  -5.2 -10 0  -4.8 -10 0  -4.4 -10 0  -4 -10 0  -3.6 -10 0  -3.2 -10 0  -2.8 -10 0  -2.4 -10 0  -2 -10 0  -1.6 -10 0  -1.199999999999999 -10 0  -0.8000000000000007 -10 0  -0.4000000000000004 -10 0  0 -10 0  0.4000000000000004 -10 0  0.8000000000000007 -10 0  1.199999999999999 -10 0  1.6 -10 0  2 -10 0  2.4 -10 0  2.800000000000001 -10 0  3.199999999999999 -10 0  3.6 -10 0  4 -10 0  4.4 -10 0  4.800000000000001 -10 0  5.199999999999999 -10 0  5.6 -10 0  6 -10 0  6.399999999999999 -10 0  6.800000000000001 -10 0  7.199999999999999 -10 0  7.600000000000001 -10 0  8 -10 0  8.399999999999999 -10 0  8.800000000000001 -10 0  9.199999999999999 -10 0  9.600000000000001 -10 0  10 -10 0  -10 -9.6 0  -9.6 -9.6 0  -9.199999999999999 -9.6 0  -8.800000000000001 -9.6 0  -8.4 -9.6 0  -8 -9.6 0  -7.6 -9.6 0  -7.2 -9.6 0  -6.8 -9.6 0  -6.4 -9.6 0  -6 -9.6 0  -5.6 -9.6 0  -5.2 -9.6 0  -4.8 -9.6 0  -4.4 -9.6 0  -4 -9.6 0  -3.6 -9.6 0  -3.2 -9.6 0  -2.8 -9.6 0  -2.4 -9.6 0  -2 -9.6 0  -1.6 -9.6 0  -1.199999999999999 -9.6 0  -0.8000000000000007 -9.6 0  -0.4000000000000004 -9.6 0  0 -9.6 0  0.4000000000000004 -9.6 0  0.8000000000000007 -9.6 0  1.199999999999999 -9.6 0  1.6 -9.6 0  2 -9.6 0  2.4 -9.6 0  2.800000000000001 -9.6 0  3.199999999999999 -9.6 0  3.6 -9.6 0  4 -9.6 0  4.4 -9.6 0  4.800000000000001 -9.6 0  5.199999999999999 -9.6 0  5.6 -9.6 0  6 -9.6 0  6.399999999999999 -9.6 0  6.800000000000001 -9.6 0  7.199999999999999 -9.6 0  7.600000000000001 -9.6 0  8 -9.6 0  8.399999999999999 -9.6 0  8.800000000000001 -9.6 0  9.199999999999999 -9.6 0  9.600000000000001 -9.6 0  10 -9.6 0  -10 -9.199999999999999 0  -9.6 -9.199999999999999 0  -9.199999999999999 -9.199999999999999 0  -8.800000000000001 -9.199999999999999 0  -8.4 -9.199999999999999 0  -8 -9.199999999999999 0  -7.6 -9.199999999999999 0  -7.2 -9.199999999999999 0  -6.8 -9.199999999999999 0  -6.4 -9.199999999999999 0  -6 -9.199999999999999 0  -5.6 -9.199999999999999 0  -5.2 -9.199999999999999 0  -4.8 -9.199999999999999 0  -4.4 -9.199999999999999 0  -4 -9.199999999999999 0  -3.6 -9.199999999999999 0  -3.2 -9.199999999999999 0  -2.8 -9.199999999999999 0  -2.4 -9.199999999999999 0  -2 -9.199999999999999 0  -1.6 -9.199999999999999 0  -1.199999999999999 -9.199999999999999 0  -0.8000000000000007 -9.199999999999999 0  -0.4000000000000004 -9.199999999999999 0  0 -9.199999999999999 0  0.4000000000000004 -9.199999999999999 0  0.8000000000000007 -9.199999999999999 0  1.199999999999999 -9.199999999999999 0  1.6 -9.199999999999999 0  2 -9.199999999999999 0  2.4 -9.199999999999999 0  2.800000000000001 -9.199999999999999 0  3.199999999999999 -9.199999999999999 0  3.6 -9.199999999999999 0  4 -9.199999999999999 0  4.4 -9.199999999999999 0  4.800000000000001 -9.199999999999999 0  5.199999999999999 -9.199999999999999 0  5.6 -9.199999999999999 0  6 -9.199999999999999 0  6.399999999999999 -9.199999999999999 0  6.800000000000001 -9.199999999999999 0  7.199999999999999 -9.199999999999999 0  7.600000000000001 -9.199999999999999 0  8 -9.199999999999999 0  8.399999999999999 -9.199999999999999 0  8.800000000000001 -9.199999999999999 0  9.199999999999999 -9.199999999999999 0  9.600000000000001 -9.199999999999999 0  10 -9.199999999999999 0  -10 -8.800000000000001 0  -9.6 -8.800000000000001 0  -9.199999999999999 -8.800000000000001 0  -8.800000000000001 -8.800000000000001 0  -8.4 -8.800000000000001 0  -8 -8.800000000000001 0  -7.6 -8.800000000000001 0  -7.2 -8.800000000000001 0  -6.8 -8.800000000000001 0  -6.4 -8.800000000000001 0  -6 -8.800000000000001 0  -5.6 -8.800000000000001 0  -5.2 -8.800000000000001 0  -4.8 -8.800000000000001 0  -4.4 -8.800000000000001 0  -4 -8.800000000000001 0  -3.6 -8.800000000000001 0  -3.2 -8.800000000000001 0  -2.8 -8.800000000000001 0  -2.4 -8.800000000000001 0  -2 -8.800000000000001 0  -1.6 -8.800000000000001 0  -1.199999999999999 -8.800000000000001 0  -0.8000000000000007 -8.800000000000001 0  -0.4000000000000004 -8.800000000000001 0  0 -8.800000000000001 0  0.4000000000000004 -8.800000000000001 0  0.8000000000000007 -8.800000000000001 0  1.199999999999999 -8.800000000000001 0  1.6 -8.800000000000001 0  2 -8.800000000000001 0  2.4 -8.800000000000001 0  2.800000000000001 -8.800000000000001 0  3.199999999999999 -8.800000000000001 0  3.6 -8.800000000000001 0  4 -8.800000000000001 0  4.4 -8.800000000000001 0  4.800000000000001 -8.800000000000001 0  5.199999999999999 -8.800000000000001 0  5.6 -8.800000000000001 0  6 -8.800000000000001 0  6.399999999999999 -8.800000000000001 0  6.800000000000001 -8.800000000000001 0  7.199999999999999 -8.800000000000001 0  7.600000000000001 -8.800000000000001 0  8 -8.800000000000001 0  8.399999999999999 -8.800000000000001 0  8.800000000000001 -8.800000000000001 0  9.199999999999999 -8.800000000000001 0  9.600000000000001 -8.800000000000001 0  10 -8.800000000000001 0  -10 -8.4 0  -9.6 -8.4 0  -9.199999999999999 -8.4 0  -8.800000000000001 -8.4 0  -8.4 -8.4 0  -8 -8.4 0  -7.6 -8.4 0  -7.2 -8.4 0  -6.8 -8.4 0  -6.4 -8.4 0  -6 -8.4 0  -5.6 -8.4 0  -5.2 -8.4 0  -4.8 -8.4 0  -4.4 -8.4 0  -4 -8.4 0  -3.6 -8.4 0  -3.2 -8.4 0  -2.8 -8.4 0  -2.4 -8.4 0  -2 -8.4 0  -1.6 -8.4 0  -1.199999999999999 -8.4 0  -0.8000000000000007 -8.4 0  -0.4000000000000004 -8.4 0  0 -8.4 0  0.4000000000000004 -8.4 0  0.8000000000000007 -8.4 0  1.199999999999999 -8.4 0  1.6 -8.4 0  2 -8.4 0  2.4 -8.4 0  2.800000000000001 -8.4 0  3.199999999999999 -8.4 0  3.6 -8.4 0  4 -8.4 0  4.4 -8.4 0  4.800000000000001 -8.4 0  5.199999999999999 -8.4 0  5.6 -8.4 0  6 -8.4 0  6.399999999999999 -8.4 0  6.800000000000001 -8.4 0  7.199999999999999 -8.4 0  7.600000000000001 -8.4 0  8 -8.4 0  8.399999999999999 -8.4 0  8.800000000000001 -8.4 0  9.199999999999999 -8.4 0  9.600000000000001 -8.4 0  10 -8.4 0  -10 -8 0  -9.6 -8 0  -9.199999999999999 -8 0  -8.800000000000001 -8 0  -8.4 -8 0  -8 -8 0  -7.6 -8 0  -7.2 -8 0  -6.8 -8 0  -6.4 -8 0  -6 -8 0  -5.6 -8 0  -5.2 -8 0  -4.8 -8 0  -4.4 -8 0  -4 -8 0  -3.6 -8 0  -3.2 -8 0  -2.8 -8 0  -2.4 -8 0  -2 -8 0  -1.6 -8 0  -1.199999999999999 -8 0  -0.8000000000000007 -8 0  -0.4000000000000004 -8 0  0 -8 0  0.4000000000000004 -8 0  0.8000000000000007 -8 0  1.199999999999999 -8 0  1.6 -8 0  2 -8 0  2.4 -8 0  2.800000000000001 -8 0  3.199999999999999 -8 0  3.6 -8 0  4 -8 0  4.4 -8 0  4.800000000000001 -8 0  5.199999999999999 -8 0  5.6 -8 0  6 -8 0  6.399999999999999 -8 0  6.800000000000001 -8 0  7.199999999999999 -8 0  7.600000000000001 -8 0  8 -8 0  8.399999999999999 -8 0  8.800000000000001 -8 0  9.199999999999999 -8 0  9.600000000000001 -8 0  10 -8 0  -10 -7.6 0  -9.6 -7.6 0  -9.199999999999999 -7.6 0  -8.800000000000001 -7.6 0  -8.4 -7.6 0  -8 -7.6 0  -7.6 -7.6 0  -7.2 -7.6 0  -6.8 -7.6 0  -6.4 -7.6 0  -6 -7.6 0  -5.6 -7.6 0  -5.2 -7.6 0  -4.8 -7.6 0  -4.4 -7.6 0  -4 -7.6 0  -3.6 -7.6 0  -3.2 -7.6 0  -2.8 -7.6 0  -2.4 -7.6 0  -2 -7.6 0  -1.6 -7.6 0  -1.199999999999999 -7.6 0  -0.8000000000000007 -7.6 0  -0.4000000000000004 -7.6 0  0 -7.6 0  0.4000000000000004 -7.6 0  0.8000000000000007 -7.6 0  1.199999999999999 -7.6 0  1.6 -7.6 0  2 -7.6 0  2.4 -7.6 0  2.800000000000001 -7.6 0  3.199999999999999 -7.6 0  3.6 -7.6 0  4 -7.6 0  4.4 -7.6 0  4.800000000000001 -7.6 0  5.199999999999999 -7.6 0  5.6 -7.6 0  6 -7.6 0  6.399999999999999 -7.6 0  6.800000000000001 -7.6 0  7.199999999999999 -7.6 0  7.600000000000001 -7.6 0  8 -7.6 0  8.399999999999999 -7.6 0  8.800000000000001 -7.6 0  9.199999999999999 -7.6 0  9.600000000000001 -7.6 0  10 -7.6 0  -10 -7.2 0  -9.6 -7.2 0  -9.199999999999999 -7.2 0  -8.800000000000001 -7.2 0  -8.4 -7.2 0  -8 -7.2 0  -7.6 -7.2 0  -7.2 -7.2 0  -6.8 -7.2 0  -6.4 -7.2 0  -6 -7.2 0  -5.6 -7.2 0  -5.2 -7.2 0  -4.8 -7.2 0  -4.4 -7.2 0  -4 -7.2 0  -3.6 -7.2 0  -3.2 -7.2 0  -2.8 -7.2 0  -2.4 -7.2 0  -2 -7.2 0  -1.6 -7.2 0  -1.199999999999999 -7.2 0  -0.8000000000000007 -7.2 0  -0.4000000000000004 -7.2 0  0 -7.2 0  0.4000000000000004 -7.2 0  0.8000000000000007 -7.2 0  1.199999999999999 -7.2 0  1.6 -7.2 0  2 -7.2 0  2.4 -7.2 0  2.800000000000001 -7.2 0  3.199999999999999 -7.2 0  3.6 -7.2 0  4 -7.2 0  4.4 -7.2 0  4.800000000000001 -7.2 0  5.199999999999999 -7.2 0  5.6 -7.2 0  6 -7.2 0  6.399999999999999 -7.2 0  6.800000000000001 -7.2 0  7.199999999999999 -7.2 0  7.600000000000001 -7.2 0  8 -7.2 0  8.399999999999999 -7.2 0  8.800000000000001 -7.2 0  9.199999999999999 -7.2 0  9.600000000000001 -7.2 0  10 -7.2 0  -10 -6.8 0  -9.6 -6.8 0  -9.199999999999999 -6.8 0  -8.800000000000001 -6.8 0  -8.4 -6.8 0  -8 -6.8 0  -7.6 -6.8 0  -7.2 -6.8 0  -6.8 -6.8 0  -6.4 -6.8 0  -6 -6.8 0  -5.6 -6.8 0  -5.2 -6.8 0  -4.8 -6.8 0  -4.4 -6.8 0  -4 -6.8 0  -3.6 -6.8 0  -3.2 -6.8 0  -2.8 -6.8 0  -2.4 -6.8 0  -2 -6.8 0  -1.6 -6.8 0  -1.199999999999999 -6.8 0  -0.8000000000000007 -6.8 0  -0.4000000000000004 -6.8 0  0 -6.8 0  0.4000000000000004 -6.8 0  0.8000000000000007 -6.8 0  1.199999999999999 -6.8 0  1.6 -6.8 0  2 -6.8 0  2.4 -6.8 0  2.800000000000001 -6.8 0  3.199999999999999 -6.8 0  3.6 -6.8 0  4 -6.8 0  4.4 -6.8 0  4.800000000000001 -6.8 0  5.199999999999999 -6.8 0  5.6 -6.8 0  6 -6.8 0  6.399999999999999 -6.8 0  6.800000000000001 -6.8 0  7.199999999999999 -6.8 0  7.600000000000001 -6.8 0  8 -6.8 0  8.399999999999999 -6.8 0  8.800000000000001 -6.8 0  9.199999999999999 -6.8 0  9.600000000000001 -6.8 0  10 -6.8 0  -10 -6.4 0  -9.6 -6.4 0  -9.199999999999999 -6.4 0  -8.800000000000001 -6.4 0  -8.4 -6.4 0  -8 -6.4 0  -7.6 -6.4 0  -7.2 -6.4 0  -6.8 -6.4 0  -6.4 -6.4 0  -6 -6.4 0  -5.6 -6.4 0  -5.2 -6.4 0  -4.8 -6.4 0  -4.4 -6.4 0  -4 -6.4 0  -3.6 -6.4 0  -3.2 -6.4 0  -2.8 -6.4 0  -2.4 -6.4 0  -2 -6.4 0  -1.6 -6.4 0  -1.199999999999999 -6.4 0  -0.8000000000000007 -6.4 0  -0.4000000000000004 -6.4 0  0 -6.4 0
[...]
<PointData  Scalars="f_203"> 
<DataArray  type="Float64"  Name="f_203"  format="ascii">-1.5595515335905638e-05  1.0472359804782259e-04  -1.5615279756416291e-04  1.5227301563987581e-04  -7.7014360264338101e-05  -7.8348371744483113e-05  3.1376490282983944e-04  -6.2015233291003191e-04  9.8005436270133810e-04  -1.3691313958720842e-03  1.7583387809549623e-03  -2.1165862107345363e-03  2.4136249314302589e-03  -2.6228871176813256e-03  2.7240058646775820e-03  -2.7047743851229059e-03  2.5623562942841053e-03  -2.3036302215161887e-03  1.9446345498880903e-03  -1.5091639601482458e-03  1.0266503791690989e-03  -5.2952918072087852e-04  5.0340476151440517e-05  3.8115959345188204e-04  -7.4060392857049312e-04  1.0110897444209740e-03  -1.1845289318497161e-03  1.2621480990647983e-03  -1.2540945711146771e-03  1.1781904320115756e-03  -1.0579584049764665e-03  9.2011312084748530e-04  -7.9176244899756114e-04  6.9759113527096892e-04  -6.5730038154202897e-04  6.8355207583582322e-04  -7.8061753550753138e-04  9.4386256016465149e-04  -1.1601198420831090e-03  1.4089141048647760e-03  -1.6644229743284019e-03  1.8979854298121132e-03  -2.0809165863480911e-03  2.1873575986564708e-03  -2.1968855113094275e-03  2.0966301141404535e-03  -1.8826900370055861e-03  1.5606935841272491e-03  -1.1452915738161655e-03  6.5688035376273556e-04  -9.5422358769840709e-05  1.1013773538973241e-04  -5.3079719232963557e-04  7.9101704691759425e-04  -7.8008544044503648e-04  4.1654147556961020e-04  3.4298393515290535e-04  -1.4983735783468861e-03  3.0048955260740320e-03  -4.7764685355155224e-03  6.6930178705859019e-03  -8.6112272673239086e-03  1.0377666241268403e-02  -1.1843042211501637e-02  1.2876216733261578e-02  -1.3376645341748873e-02  1.3284049262984089e-02  -1.2584390351453097e-02  1.1311572837951164e-02  -9.5447030749294080e-03  7.4011623462677621e-03  -5.0261473388254641e-03  2.5796697252733242e-03  -2.2224819674317812e-04  -1.8993499857104907e-03  3.6649671203859892e-03  -4.9912977239256534e-03  5.8385525558534001e-03  -6.2129249671096960e-03  6.1646437582735178e-03  -5.7818203440993410e-03  5.1807013683198930e-03  -4.4932822828718435e-03  3.8534897558948297e-03  -3.3832768950065430e-03  3.1799821229514876e-03  -3.3061794866982544e-03  3.7830070572135799e-03  -4.5876240557632614e-03  5.6550487186300836e-03  -6.8842059633286408e-03  8.1476072989888331e-03  -9.3037341721352723e-03  1.0210933805881168e-02  -1.0741488719565465e-02  1.0794501611612602e-02  -1.0306347620625248e-02  9.2576742415183735e-03  -7.6762493661739649e-03  5.6353329127743655e-03  -3.2477234028561778e-03  6.5776522245881085e-04  -2.1991575876889193e-04  1.0581591525082108e-03  -1.6088830133537057e-03  1.6735786816867624e-03  -1.1056312845916729e-03  -1.7353365485946748e-04  2.1648734629435545e-03  -4.7897266432494834e-03  7.8956239507254229e-03  -1.1269384491875154e-02  1.4656264029688237e-02  -1.7783337840355833e-02  2.0384890221828100e-02  -2.2227386137724191e-02  2.3131636374106365e-02  -2.2990032609050009e-02  2.1777197576752869e-02  -1.9553023129575263e-02  1.6457795286137014e-02  -1.2699860669832162e-02  8.5370006445869492e-03  -4.2532796911550061e-03  1.3356556822443366e-04  3.5618607351770638e-03  -6.6201984486552786e-03  8.8943588035917970e-03  -1.0314819131378404e-02  1.0893996490250871e-02  -1.0722756570801044e-02  9.9594285007012159e-03  -8.8124149141944885e-03  7.5181003026404966e-03  -6.3162103245836725e-03  5.4250173040309678e-03  -5.0187993286276581e-03  5.2097410477541907e-03  -6.0360345639036868e-03  7.4573399985197802e-03  -9.3580549344625258e-03  1.1558088227023399e-02  -1.3830109047525978e-02  1.5921616084595896e-02  -1.7579704720314268e-02  1.8576146599578632e-02  -1.8730361656091599e-02  1.7928060718890464e-02  -1.6133748721803388e-02  1.3395867103141256e-02  -9.8440743290675557e-03  5.6789937367558658e-03  -1.1557127817706477e-03  3.6351890565494097e-04  -1.7551209895636472e-03  2.7334856819076839e-03  -3.0132139105361437e-03  2.3827287575066271e-03  -7.2742982215626356e-04  -1.9566097494829729e-03  5.5597537378515392e-03  -9.8670397367864142e-03  1.4576788947526191e-02  -1.9327834615334796e-02  2.3732782587072891e-02  -2.7414133352393635e-02  3.0039814917408179e-02  -3.1354726824717218e-02  3.1205272748464290e-02  -2.9554526245431131e-02  2.6486567483150616e-02  -2.2199562447105112e-02  1.6988231130852297e-02  -1.1217364434278300e-02  5.2889037684518822e-03  3.9428922472663957e-04  -5.4645316993426601e-03  9.6218622297379111e-03  -1.2659946013137286e-02  1.4482900827306057e-02  -1.5111474793833330e-02  1.4678029754112407e-02  -1.3410858519844847e-02  1.1609387291416168e-02  -9.6126879585293618e-03  7.7643650068768902e-03  -6.3772269417544051e-03  5.7011694308223898e-03  -5.8973851465991302e-03  7.0214035865578056e-03  -9.0166117454150586e-03  1.1718895300585792e-02  -1.4871967086147886e-02  1.8151918137693082e-02  -2.1198635574640801e-02  2.3651066676776238e-02  -2.5182933611453646e-02  2.5535454510745955e-02  -2.4543908896728348e-02  2.2155472259464491e-02  -1.8436580819337443e-02  1.3569094804416816e-02  -7.8356059576873242e-03  1.5952189150396324e-03  -5.5104913540134234e-04  2.6697321886338236e-03  -4.2521093029392158e-03  4.9272745187156249e-03  -4.4191123226056941e-03  2.5760702559819476e-03  6.1119998730322376e-04  -5.0060682713550598e-03  1.0336424321200754e-02  -1.6218481625099222e-02  2.2191638230329741e-02  -2.7761079131751468e-02  3.2444056111433209e-02  -3.5815421799441589e-02  3.7548059908750056e-02  -3.7444336900686562e-02  3.5455555453706857e-02  -3.1687535076762821e-02  2.6391770213884662e-02  -1.9942994180609543e-02  1.2805276060841440e-02  -5.4898727338778706e-03  -1.4911555409837876e-03  7.6711554570846252e-03  -1.2670526978485783e-02  1.6229856949236243e-02  -1.8231410799967127e-02  1.8706972200328964e-02  -1.7831331688508898e-02  1.5902102736691272e-02  -1.3307855206312787e-02  1.0487675821042175e-02  -7.8860857057195463e-03  5.9076874971117892e-03  -4.8759366049046845e-03  5.0000308369951554e-03  -6.3531282905439279e-03  8.8640105158426432e-03  -1.2323011462196299e-02  1.6401657153044116e-02  -2.0684138530069996e-02  2.4707597502287855e-02  -2.8007353689375909e-02  3.0162718612526791e-02  -3.0838981436383032e-02  2.9821511999717186e-02  -2.7038678269258879e-02  2.2571344419060294e-02  -1.6647998702420064e-02  9.6259282937050557e-03  -1.9601647158005667e-03  7.8679017722341042e-04  -3.8231384079838830e-03  6.2040961906997105e-03  -7.4755745163153113e-03  7.2979165624440009e-03  -5.4818654920858476e-03  2.0099190181244904e-03  2.9590263595828366e-03  -9.1022321535248214e-03  1.5961711930516324e-02  -2.2986154937758102e-02  2.9582186913376041e-02  -3.5170073603182486e-02  3.9238539806015042e-02  -4.1393455085045661e-02  4.1395719201450139e-02  -3.9184710099573167e-02  3.4885036157515904e-02  -2.8795930181921163e-02  2.1364282198498216e-02  -1.3143872291367341e-02  4.7446835299053908e-03  3.2228780968521780e-03  -1.0203545643865844e-02  1.5747248908284051e-02  -1.9548913285789518e-02  2.1474232368175541e-02  -2.1568994821118494e-02  2.0051125419877584e-02  -1.7286259246297255e-02  1.3749247712783293e-02  -9.9753436769441095e-03  6.5058010303915932e-03  -3.8331569735741678e-03  2.3514916515114158e-03  -2.3164774289358555e-03  3.8190852115444589e-03  -6.7754986350914122e-03  1.0934225113610840e-02  -1.5899735659001192e-02  2.1170372202981794e-02  -2.6186884906013282e-02  3.0386934816417240e-02  -3.3260317955060979e-02  3.4399591158366008e-02  -3.3541215188145353e-02  3.0593234973464584e-02  -2.5646803390046838e-02  1.8970399488249939e-02  -1.0987244903864482e-02  2.2380255026892603e-03  -1.0687987598962539e-03  5.2058903115706039e-03  -8.5741874361481146e-03  1.0639944072060356e-02  -1.1001845131346694e-02  9.4326653296271847e-03  -5.9040545908916582e-03  5.9202539193050100e-04  6.1374270135168309e-03  -1.3761229961302640e-02  2.1647540324527523e-02  -2.9114845798125590e-02  3.5496211755028893e-02  -4.0202525187298839e-02  4.2778677374036352e-02  -4.2947298361173281e-02  4.0635844737554341e-02  -3.5984433587068307e-02  2.9333657236517933e-02  -2.1193528833749135e-02  1.2196514121197512e-02  -3.0391268326245917e-03  -5.5823420704534344e-03  1.3035832413936969e-02  -1.8811160115648665e-02  2.2565813577823259e-02  -2.4154554578782982e-02  2.3640033124332965e-02  -2.1283448822952585e-02  1.7516206521773652e-02  -1.2895337344589988e-02  8.0470129264844197e-03  -3.6036211350950051e-03  1.4048649787211384e-04  1.8816510759446022e-03  -2.1628427267528757e-03  5.9435659012498977e-04  2.7296223753456765e-03  -7.5201611834794816e-03  1.3320845664220376e-02  -1.9551535447113307e-02  2.5564408241598294e-02  -3.0706908642706431e-02  3.4385547688106269e-02  -3.6124411625837446e-02  3.5612740313402710e-02  -3.2736979196363036e-02  2.7594193686515375e-02  -2.0485518319973660e-02  1.1890224371016335e-02  -2.4228471524723326e-03  1.3888036822472343e-03  -6.7773000968168479e-03  1.1291324686094065e-02  -1.4322469923923007e-02  1.5410825574095087e-02  -1.4291734141589680e-02  1.0923669706725300e-02  -5.4945259353633294e-03  -1.5943257441271754e-03  9.7647099157520123e-03  -1.8315561437308968e-02  2.6488929803972078e-02  -3.3541758262034614e-02  3.8816563191473398e-02  -4.1804239735630022e-02  4.2192970136644498e-02  -3.9898539804446048e-02  3.5073145344337829e-02  -2.8091837931793383e-02  1.9517886969380154e-02  -1.0050367433932953e-02  4.5897605076172549e-04  8.4876968432674865e-03  -1.6093588371042210e-02  2.1799458320936826e-02  -2.5233926184081008e-02  2.6246392203131439e-02  -2.4918724725808902e-02  2.1554634868993575e-02  -1.6647801102086014e-02  1.0831845320872250e-02  -4.8170025954994786e-03  -6.8039800530018144e-04  5.0088366442200766e-03  -7.6460513754232125e-03  8.2508167467294259e-03  -6.6970570206707136e-03  3.0869987173980200e-03  2.2579161884828908e-03  -8.8274954670552411e-03  1.5971722130605007e-02  -2.2963444968402590e-02  2.9068812353157111e-02  -3.3618679084062610e-02  3.6074117530817601e-02  -3.6079725307508116e-02  3.3499588347281589e-02  -2.8432418616254229e-02  2.1204380545674330e-02  -1.2340258481293281e-02  2.5156947382515790e-03  -1.7327128684835481e-03  8.4679296311784488e-03  -1.4233053136304111e-02  1.8351710970019378e-02  -2.0309893997938921e-02  1.9807126711746257e-02  -1.6787046922920199e-02  1.1444432724120518e-02  -4.2079772681462612e-03  -4.2995580106551957e-03  1.3320007230480707e-02  -2.2031667431188715e-02  2.9627485470287207e-02  -3.5392070467790249e-02  3.8770146970085517e-02  -3.9419881847282089e-02  3.7245966048163513e-02  -3.2409271765709069e-02  2.5312150231100200e-02  -1.6560769864213325e-02  6.9080948433123185e-03  2.8170408174222434e-03  -1.1787976879513632e-02  1.9257920750935940e-02  -2.4629859937331154e-02  2.7512010053365794e-02  -2.7753505059823283e-02  2.5456933699220818e-02  -2.0966548905065011e-02  1.4833311912654223e-02  -7.7601557763205360e-03  5.3275065389348886e-04  6.0575565826355158e-03  -1.1291206511391703e-02  1.4590836630224471e-02  -1.5577857320538506e-02  1.4109746119838043e-02  -1.0294465943111878e-02  4.4806119455898710e-03  2.7757751372243251e-03  -1.0764548074298523e-02  1.8689825560986244e-02  -2.5746832219681850e-02  3.1199823997188656e-02  -3.4453608990651377e-02  3.5111785001171264e-02  -3.3016086793413529e-02  2.8263046143252750e-02  -2.1196342657356242e-02  1.2375554522830944e-02  -2.5242823077849751e-03  2.0817096725289186e-03  -1.0184999147767805e-02  1.7235137336008885e-02  -2.2496339898277828e-02  2.5406608856447906e-02  -2.5632555531347516e-02  2.3102235421304244e-02  -1.8012830490817325e-02  1.0812429479144618e-02  -2.1576440798717904e-03  -7.1488805762324583e-03  1.6235071512498245e-02  -2.4242803534624300e-02  3.0410047417546548e-02  -3.4143909269964204e-02  3.5077552202146763e-02  -3.3105536633090897e-02  2.8394185194895429e-02  -2.1365973611622659e-02  1.2659440258471485e-02  -3.0684552479665816e-03  -6.5333305149884975e-03  1.5275614786092984e-02  -2.2374184244657199e-02  2.7205336272001942e-02  -2.9364852228395369e-02  2.8705875641665601e-02  -2.5352073904305564e-02  1.9684834629841545e-02  -1.2305740014942647e-02  3.9779351915997622e-03  4.4479681008571786e-03  -1.2116327520763056e-02  1.8249321206498022e-02  -2.2222250539858279e-02  2.3624056918657654e-02  -2.2297235420578820e-02  1.8353307269981235e-02  -1.2162360544125714e-02  4.3176592312707072e-03  4.4212845070715030e-03  -1.3201711079170560e-02  2.1159678912717365e-02  -2.7503314480742065e-02  3.1589251339732435e-02  -3.2984914679662226e-02  3.1510664888345183e-02  -2.7257745376477484e-02  2.0580301039901387e-02  -1.2062221560004381e-02  2.4619795029536787e-03  -2.4138397491446310e-03  1.1820219045604142e-02  -2.0105499515584723e-02  2.6484944325722379e-02  -3.0356371921301369e-02  3.1357797902601445e-02  -2.9402030554160689e-02  2.4684901743372428e-02  -1.7666345284803396e-02  9.0261408333257038e-03  4.0142719896491485e-04  -9.7077226852346817e-03  1.7997028366158966e-02  -2.4472556692220669e-02  2.8512944865093062e-02  -2.9731891676523434e-02  2.8015212138983257e-02  -2.3531753701986603e-02  1.6717126966879357e-02  -8.2318134281623000e-03  -1.1023276083958981e-03  1.0381057230162949e-02  -1.8704676089601337e-02  2.5264519906157450e-02  -2.9420727136727706e-02  3.0763812212572055e-02  -2.9154131994455771e-02  2.4735454861857947e-02  -1.7921327486434456e-02  9.3555452642583841e-03  1.4948200726011421e-04  -9.6905558876713652e-03  1.8360238973449506e-02  -2.5333823490628085e-02  2.9948373402700471e-02  -3.1766255209095123e-02  3.0617061171135180e-02  -2.6613902359104501e-02  2.0142508659683710e-02  -1.1824182608230108e-02  2.4561631544195604e-03  7.0648766137506799e-03  -1.5828855245750315e-02  2.2999575891237606e-02  -2.7894908800035454e-02  3.0052168469072722e-02  -2.9272411851187539e-02  2.5639407502289900e-02  -1.9511456934547259e-02  1.1486855441229096e-02  -2.3463100611438347e-03  2.7059399220501533e-03  -1.3259310431256074e-02  2.2641170887598587e-02  -3.0030123815996228e-02  3.4793268410912209e-02  -3.6545768016780042e-02  3.5186669318493985e-02  -3.0907552515631324e-02  2.4173198275600917e-02  -1.5676141680620707e-02  6.2694880728469899e-03  3.1155497247151772e-03  -1.1559468922142371e-02  1.8243021403631349e-02  -2.2525982356321101e-02  2.4008580444730619e-02  -2.2569693661462477e-02  1.8378147453734246e-02  -1.1876035772118597e-02  3.7356732533040870e-03  5.2056801579254521e-03  -1.4027045385748471e-02  2.1813091613169057e-02  -2.7743052254375015e-02  3.1170638806848356e-02  -3.1687264771217284e-02  2.9162492872208182e-02  -2.3757804371275143e-02  1.5912349551173665e-02  -6.3020277438393963e-03  -4.2241945481444011e-03  1.4724633572922686e-02  -2.4254211723147040e-02  3.1954197393618378e-02  -3.7133762919624572e-02  3.9335545892899136e-02  -3.8378932690435533e-02  3.4376919295605324e-02  -2.7724938416731348e-02  1.9062730355328957e-02  -9.2129200216934295e-03  -8.9780411638394641e-04  1.0327345869289770e-02  -1.8208187075269430e-02  2.3830073039586688e-02  -2.6707470328319150e-02  2.6625333227097620e-02  -2.3658799040302356e-02  1.8164936494485050e-02  -1.0747355406384190e-02  2.1970918570900187e-03  -2.9357267459911205e-03  1.4392314362838081e-02  -2.4646651936205358e-02  3.2854600045803380e-02  -3.8363500663494386e-02  4.0772731302918232e-02  -3.9970176959127857e-02  3.6141149803366072e-02  -2.9748928954267825e-02  2.1488814013554892e-02  -1.2220125262734392e-02  2.8826967868118107e-03  5.5941064550312598e-03  -1.2381102921622178e-02  1.6829121296305621e-02  -1.8531274179779796e-02  1.7361702071266760e-02  -1.3487073714144497e-02  7.3497479439012465e-03  3.7577380866298579e-04  -8.8489077647021692e-03  1.7145199812198357e-02  -2.4346774774137298e-02  2.9632314893975008e-02  -3.2357902204965025e-02  3.2120934316802241e-02  -2.8800946238218127e-02  2.2573386401685380e-02  -1.3894990427869010e-02  3.4621222646837543e-03  7.8539525024372350e-03  -1.9088681230084989e-02  2.9274924269305964e-02  -3.7534063996371249e-02  4.3158804594012057e-02  -4.5679738991631032e-02  4.4909314170761258e-02  -4.0958991806364461e-02  3.4227970138052982e-02  -2.5364558525925233e-02  1.5203916815427045e-02  -4.6881359291522113e-03  -5.2236732302312610e-03  1.3646660663701194e-02  -1.9854138644963278e-02  2.3346066464835811e-02  -2.3895564809887575e-02  2.1569018143490090e-02  -1.6717861538190392e-02  9.9428687958065358e-03  -2.0344002222841043e-03  3.0838464043400678e-03  -1.5123710586048583e-02  2.5951936821466060e-02  -3.4716856812939019e-02  4.0758232384485657e-02  -4.3667828042300606e-02  4.3325941324355362e-02  -3.9910425694318762e-02  3.3877378060743819e-02  -2.5915379212960579e-02  1.6877709894728983e-02  -7.6990746928165881e-03  -6.9515199817493710e-04  7.4784311415271474e-03  -1.2002713895138521e-02  1.3860595730554303e-02  -1.2924004900971186e-02  9.3557182847343878e-03  -3.5926112997484100e-03  -3.6977330021296093e-03  1.1682868377858181e-02  -1.9447436179584467e-02  2.6083325007517161e-02  -3.0779349973326098e-02  3.2901805104057921e-02  -3.2058115697859962e-02  2.8137437459243238e-02  -2.1324260518469657e-02  1.2083666769362107e-02  -1.1196097189169576e-03  -1.0689823903819057e-02  2.2374000800617150e-02  -3.2960386829207537e-02  4.1565590386492920e-02  -4.7478100538456670e-02  5.0224810261620935e-02  -4.9614967124342185e-02  4.5757355502578173e-02  -3.9049078562165176e-02  3.0137028743036354e-02  -1.9855751282769098e-02  9.1476654681895662e-03  1.0267040702115809e-03  -9.7798804731460895e-03  1.6381239219747407e-02  -2.0325441727390488e-02  2.1378955790666336e-02  -1.9600228415229948e-02  1.5331609505930651e-02  -9.1638397508582350e-03  1.8765522494517827e-03  -3.1356905727491420e-03  1.5381381314129410e-02  -2.6428483349331029e-02  3.5433863966813778e-02  -4.1742708226789459e-02  4.4948130424001212e-02  -4.4927157207311962e-02  4.1849676092032100e-02  -3.6159534591013294e-02  2.8529644206012700e-02  -1.9795433938108141e-02  1.0873070844565324e-02  -2.6703215989163421e-03  -4.0013706919384117e-03  8.5051431232793136e-03  -1.0439786114738531e-02  9.6777719515140793e-03  -6.3765961240462654e-03  9.6235680084259811e-04  5.9128313468285263e-03  -1.3435475376570052e-02  2.0711158636509512e-02  -2.6853052800775573e-02  3.1069950663790424e-02  -3.2745325125379789e-02  3.1499777968398084e-02  -2.7230833894233128e-02  2.0126208092531055e-02  -1.0649220857153596e-02  -5.0229386848868864e-04  1.2459694217767612e-02  -2.4263786418699682e-02  3.4953976186971686e-02  -4.3657803634624300e-02  4.9672309172733735e-02  -5.2529457474039094e-02  5.2039371642210432e-02  -4.8307254003426239e-02  4.1722389590844969e-02  -3.2920301683910087e-02  2.2721699202717997e-02  -1.2054076722069158e-02  1.8634863036875540e-03  6.9750628458168373e-03  -1.3739995502402293e-02  1.7930468938953371e-02  -1.9312149700764145e-02  1.7937110400702547e-02  -1.4135976936843450e-02  8.4831240056358614e-03  -1.7383069787661677e-03  3.0828046074727971e-03  -1.5123562870700271e-02  2.6001601068929157e-02  -3.4898711252004354e-02  4.1178861839888913e-02  -4.4445876524391803e-02  4.4578266517367258e-02  -4.1737922246303641e-02  3.6351876141973667e-02  -2.9068928667114909e-02  2.0695337578845726e-02  -1.2115774573009719e-02  4.2071616392263507e-03  2.2463234018790783e-03  -6.6289015011967208e-03  8.5522396736909690e-03  -7.8922243921604497e-03  4.7999392281245831e-03  3.1419246034461933e-04  -6.8215568242819928e-03  1.3937814083090302e-02  -2.0800649984723016e-02  2.6555313291819170e-02  -3.0439686430090762e-02  3.1860677242579141e-02  -3.0454549525411458e-02  2.6125349099307700e-02  -1.9057682900104102e-02  9.7025693638041390e-03  1.2623369629325423e-03  -1.2994383194835753e-02  2.4563554796738562e-02  -3.5038709608004329e-02  4.3574179164077603e-02  -4.9488468011853311e-02  5.2327535500911099e-02  -5.1906619072516695e-02  4.8326611930636032e-02  -4.1963444100091403e-02  3.3431500553557217e-02  -2.3524595317009098e-02  1.3140167828916510e-02  -3.1939713124509309e-03  -5.4665712539808415e-03  1.2142046680833834e-02  -1.6346144476814903e-02  1.7849946909070848e-02  -1.6701202086871269e-02 