<?xml version="1.0"?>
<VTKFile type="UnstructuredGrid"  version="0.1"  >
<UnstructuredGrid>
<Piece  NumberOfPoints="2601" NumberOfCells="5000">
<Points>
<DataArray  type="Float64"  NumberOfComponents="3"  format="ascii">-10 -10 0  -9.6 -10 0  -9.199999999999999 -10 0  -8.800000000000001 -10 0  -8.4 -10 0  -8 -10 0  -7.6 -10 0  -7.2 -10 0  -6.8 -10 0  -6.4 -10 0  -6 -10 0  -5.6 -10 0  -5.2 -10 0  -4.8 -10 0  -4.4 -10 0  -4 -10 0  -3.6 -10 0  -3.2 -10 0  -2.8 -10 0  -2.4 -10 0  -2 -10 0  -1.6 -10 0  -1.199999999999999 -10 0  -0.8000000000000007 -10 0  -0.4000000000000004 -10 0  0 -10 0  0.4000000000000004 -10 0  0.8000000000000007 -10 0  1.199999999999999 -10 0  1.6 -10 0  2 -10 0  2.4 -10 0  2.800000000000001 -10 0  3.199999999999999 -10 0  3.6 -10 0  4 -10 0  4.4 -10 0  4.800000000000001 -10 0  5.199999999999999 -10 0  5.6 -10 0  6 -10 0  6.399999999999999 -10 0  6.800000000000001 -10 0  7.199999999999999 -10 0  7.600000000000001 -10 0  8 -10 0  8.399999999999999 -10 0  8.800000000000001 -10 0  9.199999999999999 -10 0  9.600000000000001 -10 0  10 -10 0  -10 -9.6 0  -9.6 -9.6 0  -9.199999999999999 -9.6 0  -8.800000000000001 -9.6 0  -8.4 -9.6 0  -8 -9.6 0  -7.6 -9.6 0  -7.2 -9.6 0  -6.8 -9.6 0  -6.4 -9.6 0  -6 -9.6 0  -5.6 -9.6 0  -5.2 -9.6 0  -4.8 -9.6 0  -4.4 -9.6 0  -4 -9.6 0  -3.6 -9.6 0  -3.2 -9.6 0  -2.8 -9.6 0  -2.4 -9.6 0  -2 -9.6 0  -1.6 -9.6 0  -1.199999999999999 -9.6 0  -0.8000000000000007 -9.6 0  -0.4000000000000004 -9.6 0  0 -9.6 0  0.4000000000000004 -9.6 0  0.8000000000000007 -9.6 0  1.199999999999999 -9.6 0  1.6 -9.6 0  2 -9.6 0  2.4 -9.6 0  2.800000000000001 -9.6 0  3.199999999999999 -9.6 0  3.6 -9.6 0  4 -9.6 0  4.4 -9.6 0  4.800000000000001 -9.6 0  5.199999999999999 -9.6 0  5.6 -9.6 0  6 -9.6 0  6.399999999999999 -9.6 0  6.800000000000001 -9.6 0  7.199999999999999 -9.6 0  7.600000000000001 -9.6 0  8 -9.6 0  8.399999999999999 -9.6 0  8.800000000000001 -9.6 0  9.199999999999999 -9.6 0  9.600000000000001 -9.6 0  10 -9.6 0  -10 -9.199999999999999 0  -9.6 -9.199999999999999 0  -9.199999999999999 -9.199999999999999 0  -8.800000000000001 -9.199999999999999 0  -8.4 -9.199999999999999 0  -8 -9.199999999999999 0  -7.6 -9.199999999999999 0  -7.2 -9.199999999999999 0  -6.8 -9.199999999999999 0  -6.4 -9.199999999999999 0  -6 -9.199999999999999 0  -5.6 -9.199999999999999 0  -5.2 -9.199999999999999 0  -4.8 -9.199999999999999 0  -4.4 -9.199999999999999 0  -4 -9.199999999999999 0  -3.6 -9.199999999999999 0  -3.2 -9.199999999999999 0  -2.8 -9.199999999999999 0  -2.4 -9.199999999999999 0  -2 -9.199999999999999 0  -1.6 -9.199999999999999 0  -1.199999999999999 -9.199999999999999 0  -0.8000000000000007 -9.199999999999999 0  -0.4000000000000004 -9.199999999999999 0  0 -9.199999999999999 0  0.4000000000000004 -9.199999999999999 0  0.8000000000000007 -9.199999999999999 0  1.199999999999999 -9.199999999999999 0  1.6 -9.199999999999999 0  2 -9.199999999999999 0  2.4 -9.199999999999999 0  2.800000000000001 -9.199999999999999 0  3.199999999999999 -9.199999999999999 0  3.6 -9.199999999999999 0  4 -9.199999999999999 0  4.4 -9.199999999999999 0  4.800000000000001 -9.199999999999999 0  5.199999999999999 -9.199999999999999 0  5.6 -9.199999999999999 0  6 -9.199999999999999 0  6.399999999999999 -9.199999999999999 0  6.800000000000001 -9.199999999999999 0  7.199999999999999 -9.199999999999999 0  7.600000000000001 -9.199999999999999 0  8 -9.199999999999999 0  8.399999999999999 -9.199999999999999 0  8.800000000000001 -9.199999999999999 0  9.199999999999999 -9.199999999999999 0  9.600000000000001 -9.199999999999999 0  10 -9.199999999999999 0  -10 -8.800000000000001 0  -9.6 -8.800000000000001 0  -9.199999999999999 -8.800000000000001 0  -8.800000000000001 -8.800000000000001 0  -8.4 -8.800000000000001 0  -8 -8.800000000000001 0  -7.6 -8.800000000000001 0  -7.2 -8.800000000000001 0  -6.8 -8.800000000000001 0  -6.4 -8.800000000000001 0  -6 -8.800000000000001 0  -5.6 -8.800000000000001 0  -5.2 -8.800000000000001 0  -4.8 -8.800000000000001 0  -4.4 -8.800000000000001 0  -4 -8.800000000000001 0  -3.6 -8.800000000000001 0  -3.2 -8.800000000000001 0  -2.8 -8.800000000000001 0  -2.4 -8.800000000000001 0  -2 -8.800000000000001 0  -1.6 -8.800000000000001 0  -1.199999999999999 -8.800000000000001 0  -0.8000000000000007 -8.800000000000001 0  -0.4000000000000004 -8.800000000000001 0  0 -8.800000000000001 0  0.4000000000000004 -8.800000000000001 0  0.8000000000000007 -8.800000000000001 0  1.199999999999999 -8.800000000000001 0  1.6 -8.800000000000001 0  2 -8.800000000000001 0  2.4 -8.800000000000001 0  2.800000000000001 -8.800000000000001 0  3.199999999999999 -8.800000000000001 0  3.6 -8.800000000000001 0  4 -8.800000000000001 0  4.4 -8.800000000000001 0  4.800000000000001 -8.800000000000001 0  5.199999999999999 -8.800000000000001 0  5.6 -8.800000000000001 0  6 -8.800000000000001 0  6.399999999999999 -8.800000000000001 0  6.800000000000001 -8.800000000000001 0  7.199999999999999 -8.800000000000001 0  7.600000000000001 -8.800000000000001 0  8 -8.800000000000001 0  8.399999999999999 -8.800000000000001 0  8.800000000000001 -8.800000000000001 0  9.199999999999999 -8.800000000000001 0  9.600000000000001 -8.800000000000001 0  10 -8.800000000000001 0  -10 -8.4 0  -9.6 -8.4 0  -9.199999999999999 -8.4 0  -8.800000000000001 -8.4 0  -8.4 -8.4 0  -8 -8.4 0  -7.6 -8.4 0  -7.2 -8.4 0  -6.8 -8.4 0  -6.4 -8.4 0  -6 -8.4 0  -5.6 -8.4 0  -5.2 -8.4 0  -4.8 -8.4 0  -4.4 -8.4 0  -4 -8.4 0  -3.6 -8.4 0  -3.2 -8.4 0  -2.8 -8.4 0  -2.4 -8.4 0  -2 -8.4 0  -1.6 -8.4 0  -1.199999999999999 -8.4 0  -0.8000000000000007 -8.4 0  -0.4000000000000004 -8.4 0  0 -8.4 0  0.4000000000000004 -8.4 0  0.8000000000000007 -8.4 0  1.199999999999999 -8.4 0  1.6 -8.4 0  2 -8.4 0  2.4 -8.4 0  2.800000000000001 -8.4 0  3.199999999999999 -8.4 0  3.6 -8.4 0  4 -8.4 0  4.4 -8.4 0  4.800000000000001 -8.4 0  5.199999999999999 -8.4 0  5.6 -8.4 0  6 -8.4 0  6.399999999999999 -8.4 0  6.800000000000001 -8.4 0  7.199999999999999 -8.4 0  7.600000000000001 -8.4 0  8 -8.4 0  8.399999999999999 -8.4 0  8.800000000000001 -8.4 0  9.199999999999999 -8.4 0  9.600000000000001 -8.4 0  10 -8.4 0  -10 -8 0  -9.6 -8 0  -9.199999999999999 -8 0  -8.800000000000001 -8 0  -8.4 -8 0  -8 -8 0  -7.6 -8 0  -7.2 -8 0  -6.8 -8 0  -6.4 -8 0  -6 -8 0  -5.6 -8 0  -5.2 -8 0  -4.8 -8 0  -4.4 -8 0  -4 -8 0  -3.6 -8 0  -3.2 -8 0  -2.8 -8 0  -2.4 -8 0  -2 -8 0  -1.6 -8 0  -1.199999999999999 -8 0  -0.8000000000000007 -8 0  -0.4000000000000004 -8 0  0 -8 0  0.4000000000000004 -8 0  0.8000000000000007 -8 0  1.199999999999999 -8 0  1.6 -8 0  2 -8 0  2.4 -8 0  2.800000000000001 -8 0  3.199999999999999 -8 0  3.6 -8 0  4 -8 0  4.4 -8 0  4.800000000000001 -8 0  5.199999999999999 -8 0  5.6 -8 0  6 -8 0  6.399999999999999 -8 0  6.800000000000001 -8 0  7.199999999999999 -8 0  7.600000000000001 -8 0  8 -8 0  8.399999999999999 -8 0  8.800000000000001 -8 0  9.199999999999999 -8 0  9.600000000000001 -8 0  10 -8 0  -10 -7.6 0  -9.6 -7.6 0  -9.199999999999999 -7.6 0  -8.800000000000001 -7.6 0  -8.4 -7.6 0  -8 -7.6 0  -7.6 -7.6 0  -7.2 -7.6 0  -6.8 -7.6 0  -6.4 -7.6 0  -6 -7.6 0  -5.6 -7.6 0  -5.2 -7.6 0  -4.8 -7.6 0  -4.4 -7.6 0  -4 -7.6 0  -3.6 -7.6 0  -3.2 -7.6 0  -2.8 -7.6 0  -2.4 -7.6 0  -2 -7.6 0  -1.6 -7.6 0  -1.199999999999999 -7.6 0  -0.8000000000000007 -7.6 0  -0.4000000000000004 -7.6 0  0 -7.6 0  0.4000000000000004 -7.6 0  0.8000000000000007 -7.6 0  1.199999999999999 -7.6 0  1.6 -7.6 0  2 -7.6 0  2.4 -7.6 0  2.800000000000001 -7.6 0  3.199999999999999 -7.6 0  3.6 -7.6 0  4 -7.6 0  4.4 -7.6 0  4.800000000000001 -7.6 0  5.199999999999999 -7.6 0  5.6 -7.6 0  6 -7.6 0  6.399999999999999 -7.6 0  6.800000000000001 -7.6 0  7.199999999999999 -7.6 0  7.600000000000001 -7.6 0  8 -7.6 0  8.399999999999999 -7.6 0  8.800000000000001 -7.6 0  9.199999999999999 -7.6 0  9.600000000000001 -7.6 0  10 -7.6 0  -10 -7.2 0  -9.6 -7.2 0  -9.199999999999999 -7.2 0  -8.800000000000001 -7.2 0  -8.4 -7.2 0  -8 -7.2 0  -7.6 -7.2 0  -7.2 -7.2 0  -6.8 -7.2 0  -6.4 -7.2 0  -6 -7.2 0  -5.6 -7.2 0  -5.2 -7.2 0  -4.8 -7.2 0  -4.4 -7.2 0  -4 -7.2 0  -3.6 -7.2 0  -3.2 -7.2 0  -2.8 -7.2 0  -2.4 -7.2 0  -2 -7.2 0  -1.6 -7.2 0  -1.199999999999999 -7.2 0  -0.8000000000000007 -7.2 0  -0.4000000000000004 -7.2 0  0 -7.2 0  0.4000000000000004 -7.2 0  0.8000000000000007 -7.2 0  1.199999999999999 -7.2 0  1.6 -7.2 0  2 -7.2 0  2.4 -7.2 0  2.800000000000001 -7.2 0  3.199999999999999 -7.2 0  3.6 -7.2 0  4 -7.2 0  4.4 -7.2 0  4.800000000000001 -7.2 0  5.199999999999999 -7.2 0  5.6 -7.2 0  6 -7.2 0  6.399999999999999 -7.2 0  6.800000000000001 -7.2 0  7.199999999999999 -7.2 0  7.600000000000001 -7.2 0  8 -7.2 0  8.399999999999999 -7.2 0  8.800000000000001 -7.2 0  9.199999999999999 -7.2 0  9.600000000000001 -7.2 0  10 -7.2 0  -10 -6.8 0  -9.6 -6.8 0  -9.199999999999999 -6.8 0  -8.800000000000001 -6.8 0  -8.4 -6.8 0  -8 -6.8 0  -7.6 -6.8 0  -7.2 -6.8 0  -6.8 -6.8 0  -6.4 -6.8 0  -6 -6.8 0  -5.6 -6.8 0  -5.2 -6.8 0  -4.8 -6.8 0  -4.4 -6.8 0  -4 -6.8 0  -3.6 -6.8 0  -3.2 -6.8 0  -2.8 -6.8 0  -2.4 -6.8 0  -2 -6.8 0  -1.6 -6.8 0  -1.199999999999999 -6.8 0  -0.8000000000000007 -6.8 0  -0.4000000000000004 -6.8 0  0 -6.8 0  0.4000000000000004 -6.8 0  0.8000000000000007 -6.8 0  1.199999999999999 -6.8 0  1.6 -6.8 0  2 -6.8 0  2.4 -6.8 0  2.800000000000001 -6.8 0  3.199999999999999 -6.8 0  3.6 -6.8 0  4 -6.8 0  4.4 -6.8 0  4.800000000000001 -6.8 0  5.199999999999999 -6.8 0  5.6 -6.8 0  6 -6.8 0  6.399999999999999 -6.8 0  6.800000000000001 -6.8 0  7.199999999999999 -6.8 0  7.600000000000001 -6.8 0  8 -6.8 0  8.399999999999999 -6.8 0  8.800000000000001 -6.8 0  9.199999999999999 -6.8 0  9.600000000000001 -6.8 0  10 -6.8 0  -10 -6.4 0  -9.6 -6.4 0  -9.199999999999999 -6.4 0  -8.800000000000001 -6.4 0  -8.4 -6.4 0  -8 -6.4 0  -7.6 -6.4 0  -7.2 -6.4 0  -6.8 -6.4 0  -6.4 -6.4 0  -6 -6.4 0  -5.6 -6.4 0  -5.2 -6.4 0  -4.8 -6.4 0  -4.4 -6.4 0  -4 -6.4 0  -3.6 -6.4 0  -3.2 -6.4 0  -2.8 -6.4 0  -2.4 -6.4 0  -2 -6.4 0  -1.6 -6.4 0  -1.199999999999999 -6.4 0  -0.8000000000000007 -6.4 0  -0.4000000000000004 -6.4 0  0 -6.4 0
[...]
<PointData  Scalars="f_500"> 
<DataArray  type="Float64"  Name="f_500"  format="ascii">2.7229232992388469e-04  -1.8385316692314396e-03  3.0856115424426405e-03  -3.9510693651388460e-03  4.3543484103552308e-03  -4.2772740141612843e-03  3.7701745918792065e-03  -2.9408718237286086e-03  1.9338149238665608e-03  -9.0376777511000437e-04  -1.1030639471770222e-05  7.1134170958234003e-04  -1.1510465269835527e-03  1.3405438963949730e-03  -1.3391140818806273e-03  1.2380235799508120e-03  -1.1378844838552521e-03  1.1248392997040258e-03  -1.2503272389909809e-03  1.5184643946031147e-03  -1.8835796057946788e-03  2.2584702435423888e-03  -2.5318533870578815e-03  2.5916825835916044e-03  -2.3498206401305882e-03  1.7632320215442633e-03  -8.4744619877685800e-04  -3.2055482246544083e-04  1.6109207513066606e-03  -2.8597423800941989e-03  3.8949094263068117e-03  -4.5644817599949710e-03  4.7625092484917687e-03  -4.4476370116283588e-03  3.6510952246945200e-03  -2.4725653194968512e-03  1.0645903088761289e-03  3.9174724142376527e-04  -1.7155943137967759e-03  2.7544838396426612e-03  -3.4069670136455390e-03  3.6358561700089664e-03  -3.4699564523097562e-03  2.9942840384198735e-03  -2.3308682506292568e-03  1.6139257525157903e-03  -9.6416764434710707e-04  4.6707374988452029e-04  -1.5913747447850407e-04  2.4478157147488685e-05  -1.8457336840671203e-06  -1.8383687631756053e-03  8.8958258212118932e-03  -1.4852871304897854e-02  1.9005590350750782e-02  -2.0930959704026787e-02  2.0539556995604842e-02  -1.8076035624963304e-02  1.4063170063355404e-02  -9.2005036431386973e-03  4.2368557783836426e-03  1.5965846656256638e-04  -3.5104224063790034e-03  5.5945910487256167e-03  -6.4653955157798334e-03  6.4129681168493026e-03  -5.8823051604818448e-03  5.3633976866637734e-03  -5.2756905935669261e-03  5.8699200713612509e-03  -7.1668768829789512e-03  8.9454150718516548e-03  -1.0782443783029021e-02  1.2137515927412496e-02  -1.2465877890955242e-02  1.1338127827274799e-02  -8.5430395063088790e-03  4.1529616627218194e-03  1.4620144598697566e-03  -7.6754677411767849e-03  1.3695613323367375e-02  -1.8690440241174496e-02  2.1925056850103923e-02  -2.2886711813665025e-02  2.1374902035810356e-02  -1.7540092262972259e-02  1.1863739263939669e-02  -5.0828501640942138e-03  -1.9277308552192907e-03  8.2945571836318399e-03  -1.3281826715503839e-02  1.6400858661277527e-02  -1.7474080572643658e-02  1.6643258147554889e-02  -1.4321966307572164e-02  1.1102470694548984e-02  -7.6353824569840847e-03  4.5051532211535707e-03  -2.1248396922403075e-03  6.6954333118038594e-04  -6.0300706935240925e-05  4.4586749224162850e-07  3.0837376050633601e-03  -1.4845158890360933e-02  2.4737258973473807e-02  -3.1569357615773598e-02  3.4628270065405663e-02  -3.3775050779490265e-02  2.9443897565137375e-02  -2.2544112622000703e-02  1.4284165353122769e-02  -5.9510184193818753e-03  -1.3144017396192389e-03  6.7046423431790054e-03  -9.8626526514097399e-03  1.0908456232020245e-02  -1.0373050044464205e-02  9.0545595646576577e-03  -7.8262566766878205e-03  7.4349246343539746e-03  -8.3295885086607634e-03  1.0554543731930564e-02  -1.3728076860575658e-02  1.7111651666633965e-02  -1.9756772224959744e-02  2.0701553504123268e-02  -1.9179103422580078e-02  1.4797042352947246e-02  -7.6524102039819270e-03  -1.6420544123911356e-03  1.2027901398968446e-02  -2.2156891652100490e-02  3.0606313320255422e-02  -3.6115737713997648e-02  3.7802794094654403e-02  -3.5318886097580715e-02  2.8916336262671708e-02  -1.9414297474707840e-02  8.0689936314245168e-03  3.6289134731219428e-03  -1.4193968007093875e-02  2.2380217641515175e-02  -2.7369076795183387e-02  2.8878440315601994e-02  -2.7175370462104345e-02  2.2992449999506812e-02  -1.7365497454601524e-02  1.1424510236247206e-02  -6.1778269288139225e-03  2.3301008418074622e-03  -1.6768243241993119e-04  -4.6823407460323731e-04  1.1731831000019429e-04  -3.9451000840320183e-03  1.8978529231408747e-02  -3.1540668232925541e-02  4.0069274975322561e-02  -4.3641306654788159e-02  4.2103883003957128e-02  -3.6070996790789941e-02  2.6788682125168686e-02  -1.5895008504323328e-02  5.1201246273853435e-03  4.0180267574352925e-03  -1.0466677280898609e-02  1.3794535237048662e-02  -1.4224722228762860e-02  1.2541125268850265e-02  -9.8888483473271831e-03  7.5092906687242982e-03  -6.4624560866726102e-03  7.3911602677809198e-03  -1.0373486206883225e-02  1.4892726651260168e-02  -1.9931377104531783e-02  2.4171784721154867e-02  -2.6265337159536873e-02  2.5118512092522763e-02  -2.0140277169060576e-02  1.1401994188351590e-02  3.2307489992178078e-04  -1.3651286962149806e-02  2.6797330163358848e-02  -3.7864221568665896e-02  4.5163119792894467e-02  -4.7505365215212862e-02  4.4413662175405551e-02  -3.6213640899199581e-02  2.3988556434534625e-02  -9.4046273439332886e-03  -5.5620774520769760e-03  1.8948556731584403e-02  -2.9120150375390359e-02  3.5022466553496438e-02  -3.6326212742166963e-02  3.3441096665676080e-02  -2.7399131469799186e-02  1.9631605412333102e-02  -1.1683220019462268e-02  4.9179089545934238e-03  -2.7161093630987017e-04  -1.9023072975959156e-03  1.8673629418002350e-03  -4.1354926841663043e-04  4.3416767580996985e-03  -2.0871804109571439e-02  3.4547695754255099e-02  -4.3578642102885569e-02  4.6929922866933309e-02  -4.4475964799604049e-02  3.6992964484112045e-02  -2.5994368571992634e-02  1.3441154680605069e-02  -1.3814366264695236e-03  -8.4136848426478866e-03  1.4751171055007903e-02  -1.7199620352706283e-02  1.6123510549768166e-02  -1.2564568779017024e-02  7.9955290498976341e-03  -3.9954336142589975e-03  1.9101556713012561e-03  -2.5642680818198076e-03  6.0803148938642776e-03  -1.1840873757023831e-02  1.8601416944213998e-02  -2.4733050365711280e-02  2.8549175716944864e-02  -2.8653705208728876e-02  2.4243772511340259e-02  -1.5307839778482293e-02  2.6792503513110993e-03  1.2067934003072361e-02  -2.6864531636415247e-02  3.9490398253641396e-02  -4.7955491524097220e-02  5.0848763515708245e-02  -4.7591144869944708e-02  3.8546037678783458e-02  -2.4966544159491035e-02  8.7883550225399485e-03  7.6946912344034325e-03  -2.2214086086732348e-02  3.2900335728773641e-02  -3.8580162095917324e-02  3.8944930687858828e-02  -3.4561980113842553e-02  2.6729588830026803e-02  -1.7205061970189325e-02  7.8585171640216337e-03  -3.1811589478054035e-04  -4.3266857445504285e-03  5.7089152999384163e-03  -4.2217917088675254e-03  9.0522131478056359e-04  -4.2557860854049584e-03  2.0437926886901547e-02  -3.3623265340591693e-02  4.1949355432345695e-02  -4.4373509124102241e-02  4.0836010745465078e-02  -3.2247091069068853e-02  2.0301617840724581e-02  -7.1570627048908736e-03  -4.9647871743629494e-03  1.4178296051033608e-02  -1.9262750209445293e-02  1.9859489819386743e-02  -1.6502498458972129e-02  1.0478978694474230e-02  -3.5483897765603177e-03  -2.4251002303843604e-03  5.8557277424166037e-03  -5.7611334727793746e-03  1.9667956499338033e-03  4.8495609737804375e-03  -1.3282598234336826e-02  2.1469888926761618e-02  -2.7457328714723703e-02  2.9590129854194618e-02  -2.6854795054129629e-02  1.9106198403497882e-02  -7.1350514775631278e-03  -7.4393249662512142e-03  2.2433392520339171e-02  -3.5473928145305957e-02  4.4414820237373656e-02  -4.7719938540863399e-02  4.4741700182373847e-02  -3.5843836419468478e-02  2.2345327943190399e-02  -6.2952464743477096e-03  -9.8807632063801481e-03  2.3798153859112759e-02  -3.3519495331646429e-02  3.7875459730721678e-02  -3.6643358979094307e-02  3.0552355116832363e-02  -2.1116609539051687e-02  1.0329410834590295e-02  -2.7680801293730392e-04  -7.2562484547234454e-03  1.1113462594176277e-02  -1.0967648582546645e-02  7.3576152143470805e-03  -1.5560841167726646e-03  3.7389199902274125e-03  -1.7927173459342381e-02  2.9211168147804875e-02  -3.5808153210778342e-02  3.6763103788847486e-02  -3.2110011919702794e-02  2.2852488942407035e-02  -1.0768109058882936e-02  -1.9264624799641182e-03  1.2986852368342152e-02  -2.0552225602160967e-02  2.3480100813434462e-02  -2.1543007779474252e-02  1.5451299232563522e-02  -6.6990702176859870e-03  -2.7367298354614975e-03  1.0786469815829773e-02  -1.5693159094400621e-02  1.6356087521407915e-02  -1.2547671477802476e-02  4.9623271413738569e-03  4.9121450297149307e-03  -1.5076717154475649e-02  2.3403887970497455e-02  -2.8048994051231985e-02  2.7812424987325647e-02  -2.2384027999267121e-02  1.2422818467446573e-02  5.4422582348186404e-04  -1.4386736133043976e-02  2.6750762840268096e-02  -3.5484023663100356e-02  3.9028081508751047e-02  -3.6704834460799071e-02  2.8844112027289460e-02  -1.6728497290584399e-02  2.3652825326936412e-03  1.1872572595629190e-02  -2.3670422026542431e-02  3.1182877720007871e-02  -3.3356307869037399e-02  3.0104042632141864e-02  -2.2302904768359836e-02  1.1612923167861838e-02  -1.5490617157038963e-04  -9.8931645442631617e-03  1.6705104498207168e-02  -1.9144370565886137e-02  1.6967902337777348e-02  -1.0858421816606224e-02  2.2799676026084310e-03  -2.9005466242971257e-03  1.3870290216922772e-02  -2.2234460653877741e-02  2.6419675849412960e-02  -2.5634366657651984e-02  2.0017191623013270e-02  -1.0611654507085080e-02  -8.2837174452950169e-04  1.2165928383471861e-02  -2.1279971556240947e-02  2.6461600120962964e-02  -2.6733526945753289e-02  2.2033128310853325e-02  -1.3224863319589589e-02  1.9397005968512389e-03  9.7285213016889797e-03  -1.9613168446701513e-02  2.5878552863277525e-02  -2.7362016782215046e-02  2.3790538736384211e-02  -1.5831454304175891e-02  4.9678392244479506e-03  6.7781788003819128e-03  -1.7222539020664559e-02  2.4426421169516061e-02  -2.7057498473788022e-02  2.4637875638629344e-02  -1.7632477881253331e-02  7.3614424699254867e-03  4.2470820466115888e-03  -1.5017534764593894e-02  2.2933585163166115e-02  -2.6514878431720186e-02  2.5093535121936253e-02  -1.8938781098091190e-02  9.2064473045261677e-03  2.2772182028733016e-03  -1.3357042910747057e-02  2.1951944369298322e-02  -2.6444192472838132e-02  2.5982208041896160e-02  -2.0640324515889156e-02  1.1405642278082183e-02  5.6151300603280601e-06  -1.1467999935245323e-02  2.0843307627958763e-02  -2.6379622308839650e-02  2.7038457351898471e-02  -2.2688917278332249e-02  1.4132618587362346e-02  -2.9546878431753730e-03  1.8869481333242638e-03  -8.9757054805350376e-03  1.3917043492909151e-02  -1.5443085958671188e-02  1.2973809989481881e-02  -6.7435016673133823e-03  -2.2290149628698972e-03  1.2321680383109468e-02  -2.1608737949630658e-02  2.8222790736281748e-02  -3.0711631812788881e-02  2.8322728625191258e-02  -2.1161430810482343e-02  1.0192276629373446e-02  2.9181370218535072e-03  -1.6088799623079904e-02  2.7190196124749690e-02  -3.4421563091204768e-02  3.6630316702946503e-02  -3.3515054039394102e-02  2.5674982043617355e-02  -1.4496969207592976e-02  1.9013723921573796e-03  1.0006203788378444e-02  -1.9312838188801876e-02  2.4636296916269264e-02  -2.5361189949782585e-02  2.1730544200641570e-02  -1.4777135030916525e-02  6.1088307141543268e-03  2.4106330938773258e-03  -9.0246825371716934e-03  1.2422041141381375e-02  -1.1986221574452952e-02  7.9095116471878772e-03  -1.1502450956012008e-03  -6.7582444085876429e-03  1.4010574611822516e-02  -1.8886589365322969e-02  2.0095016653410396e-02  -1.7037970953321685e-02  9.9454816354952440e-03  1.4647529901906566e-04  -1.1571632079571403e-02  2.2331072925149072e-02  -3.0458130092759696e-02  3.4382926004940528e-02  -3.3228670923559182e-02  2.6984208055500919e-02  -1.6520050345791772e-02  3.4440573333356104e-03  -8.5455708539791501e-04  4.0003373103786868e-03  -5.5600408365360180e-03  4.6280961484366110e-03  -8.5356081580104104e-04  -5.4620421879570322e-03  1.3396186646028464e-02  -2.1561761968279938e-02  2.8360222020261023e-02  -3.2284564675208322e-02  3.2215300525257465e-02  -2.7653258598281886e-02  1.8844302654870426e-02  -6.7707351075539293e-03  -6.9913033984826253e-03  2.0524328558867003e-02  -3.1887336129565881e-02  3.9442095668277367e-02  -4.2129222851161920e-02  3.9644326905537264e-02  -3.2482682568544342e-02  2.1844836659298685e-02  -9.4208907139468126e-03  -2.9067882881734309e-03  1.3388053554334166e-02  -2.0697744708066117e-02  2.4144173353519073e-02  -2.3756805499844640e-02  2.0239325707852324e-02  -1.4799396732080472e-02  8.8892895780541287e-03  -3.9078904714887515e-03  9.2136733979603265e-04  -4.5575948050097237e-04  2.4007231954901401e-03  -6.0422804316938653e-03  1.0217707885274898e-02  -1.3562321795386014e-02  1.4800260014941918e-02  -1.3022762129735473e-02  7.8995318171766592e-03  2.1884162883669886e-04  -1.0329030812600818e-02  2.0930728217912618e-02  -3.0282880861209522e-02  3.6714037863950118e-02  -3.8929781139132848e-02  3.6260134589509802e-02  -2.8800412589142500e-02  1.7418244699977499e-02  -3.6239373536206092e-03  -5.7222207309237704e-05  3.8203075211098569e-04  -1.6855837955739392e-03  4.4932195292701083e-03  -8.9375156158960599e-03  1.4693102367918327e-02  -2.1006348344412326e-02  2.6816290234628126e-02  -3.0945449467029332e-02  3.2325360430468054e-02  -3.0214356726724304e-02  2.4365830974043396e-02  -1.5113722002920440e-02  3.3568417927214178e-03  9.5579046741929921e-03  -2.2034747489672633e-02  3.2476750441684653e-02  -3.9538831422069994e-02  4.2341648483146768e-02  -4.0608715480667787e-02  3.4702817188347619e-02  -2.5555862813210505e-02  1.4505422991471773e-02  -3.0678185386805237e-03  -7.3112828154972944e-03  1.5484277119340306e-02  -2.0767205622085640e-02  2.3015594631901788e-02  -2.2599589434443363e-02  2.0286217382376293e-02  -1.7053754127155686e-02  1.3875460758617576e-02  -1.1515132773872632e-02  1.0374027475093426e-02  -1.0418389239235422e-02  1.1200950501438996e-02  -1.1971457291413846e-02  1.1853922683450350e-02  -1.0055228838168444e-02  6.0633627630603060e-03  2.0480876112185208e-04  -8.3370221549833295e-03  1.7455914847083396e-02  -2.6343353477011236e-02  3.3638013811501201e-02  -3.8071165502273088e-02  3.8697778009141169e-02  -3.5080160575292951e-02  2.7389412477609475e-02  -1.6404530651130941e-02  3.4074296964211426e-03  7.4875151195586353e-04  -3.6908158992877121e-03  7.0086825816141844e-03  -1.0862441157711393e-02  1.5198579176603949e-02  -1.9718967143576266e-02  2.3905026035780756e-02  -2.7094505498669954e-02  2.8597773170441605e-02  -2.7832358334172785e-02  2.4450275348323263e-02  -1.8433213052837481e-02  1.0135958344463996e-02  -2.6748483867765870e-04  -1.0189676981724943e-02  2.0109919934033441e-02  -2.8383791929836390e-02  3.4079387489161395e-02  -3.6578586282320538e-02  3.5665028938402676e-02  -3.1549096015359747e-02  2.4826177484246585e-02  -1.6376174819478916e-02  7.2223419187472573e-03  1.6256063643850988e-03  -9.3169313846520486e-03  1.5269355926198117e-02  -1.9225197969065778e-02  2.1246912735327778e-02  -2.1656112314685977e-02  2.0930485054387667e-02  -1.9580507596721523e-02  1.8031064547171322e-02  -1.6531494669093469e-02  1.5111509436844146e-02  -1.3591059269793926e-02  1.1641355407185871e-02  -8.8839677912414799e-03  5.0071775067482222e-03  1.2495011220970634e-04  -6.3942639942225184e-03  1.3398872685267654e-02  -2.0480853562844396e-02  2.6809067058208708e-02  -3.1504079043430756e-02  3.3783734092120210e-02  -3.3103351143213333e-02  2.9264730548106441e-02  -2.2473173862293108e-02  1.3330640534676070e-02  -2.7643811097414670e-03  -1.1744118115003307e-03  5.7075603463745484e-03  -1.0055996638811179e-02  1.4052701831905944e-02  -1.7502372840136147e-02  2.0183962861824410e-02  -2.1865903583171149e-02  2.2332770483408010e-02  -2.1419433790520605e-02  1.9046691580628203e-02  -1.5251436508382879e-02  1.0204775551205856e-02  -4.2131800800143402e-03  -2.2995864209318269e-03  8.8287992210246084e-03  -1.4839212037634251e-02  1.9822884663732099e-02  -2.3356193810856702e-02  2.5147712157995369e-02  -2.5069938778832585e-02  2.3170354173318163e-02  -1.9660522378006317e-02  1.4885400979314629e-02  -9.2780473422098882e-03  3.3070007163860876e-03  2.5755746948133941e-03  -7.9774985392678868e-03  1.2596307853217165e-02  -1.6232243417708035e-02  1.8784743270322105e-02  -2.0235611007444993e-02  2.0624194333935121e-02  -2.0020943856639804e-02  1.8505463475719821e-02  -1.6153689617595574e-02  1.3036465829349572e-02  -9.2289918380338790e-03  4.8279866614106305e-03  2.8559342548797753e-05  -5.1450579253925748e-03  1.0261059924150624e-02  -1.5057104995596961e-02  1.9175224664653323e-02  -2.2252679584617865e-02  2.3964670438701829e-02  -2.4069589536984695e-02  2.2449314588744673e-02  -1.9137320015812236e-02  1.4328987054074120e-02  -8.3711690751796051e-03  1.7313574832136241e-03  1.3459783203949578e-03  -6.4921254859923051e-03  1.0958658744656409e-02  -1.4301438754181913e-02  1.6229314815894662e-02  -1.6637975480060376e-02  1.5613683771691120e-02  -1.3407169099557036e-02  1.0383164068380709e-02  -6.9552308769077814e-03  3.5178619238782228e-03  -3.8795537364958712e-04  -2.2343414774060096e-03  4.2793432420791342e-03  -5.7949879621113703e-03  6.9114367011154851e-03  -7.7913455155519708e-03  8.5766579439841006e-03  -9.3432555574902362e-03  1.0073092685334163e-02  -1.0649860752170351e-02  1.0879467524659951e-02  -1.0531585417324314e-02  9.3941872613030556e-03  -7.3301796036739321e-03  4.3245122146210960e-03  -5.1164394253971337e-04  -3.8232807705685413e-03  8.2713847377109094e-03  -1.2351727639000006e-02  1.5579567418615235e-02  -1.7539795742103060e-02  1.7952889803853699e-02  -1.6721777714405348e-02  1.3951195453847976e-02  -9.9358435662010112e-03  5.1190789786388757e-03  -2.9007426453232484e-05  -4.7972537236626780e-03  8.8884109766788552e-03  -1.1900523078994992e-02  1.3655363501548815e-02  -1.4150045549112627e-02  1.3537568638766673e-02  -1.2083147285584519e-02  1.0105406799341580e-02  -7.9139957227885964e-03  5.7554427172164090e-03  -3.7771401590254287e-03  2.0155636500407540e-03  -4.0995787490118201e-04  -1.3248038417110410e-03  6.3446460456728516e-03  -1.0264606772338732e-02  1.2414773188015416e-02  -1.2446574007283048e-02  1.0394592895209866e-02  -6.6676180780491576e-03  1.9707525296477754e-03  2.8267792067895288e-03  -6.8534176085952928e-03  9.3964779523287353e-03  -1.0032783724538561e-02  8.7044869565928214e-03  -5.7261177599873814e-03  1.7217774033376320e-03  2.4955503988077442e-03  -6.0797847114799405e-03  8.3133030157102814e-03  -8.7438868995249434e-03  7.2713115088825220e-03  -4.1672801680739807e-03  2.4906727705132151e-05  4.3528387502194928e-03  -8.1048465710808499e-03  1.0475314436017093e-02  -1.0958247609846924e-02  9.3958282182109859e-03  -6.0120480492441460e-03  1.3750692446436890e-03  3.7049210781039820e-03  -8.3235356676821179e-03  1.1648308688197046e-02  -1.3072269259595808e-02  1.2326410918441989e-02  -9.5301117000072821e-03  5.1700788482639268e-03  -1.1670995326999831e-05  -5.0409832108574987e-03  9.1101423711196245e-03  -1.1504277164133991e-02  1.1842974552655112e-02  -1.0123860975355052e-02  6.7193021714870745e-03  -2.3037251345708184e-03  -2.2746761758811289e-03  6.1537544575985172e-03  -8.6188163640368489e-03  9.2354632544049270e-03  -7.9291009123977144e-03  4.9963724625490882e-03  -1.0465328892806326e-03  1.2046151498760424e-03  -5.7220010975027437e-03  8.7921790102222525e-03  -9.5645280764208480e-03  7.6577755113616834e-03  -3.2457650600522941e-03  -2.9637810592738293e-03  9.8542335581802525e-03  -1.6105872981257058e-02  2.0444295552341427e-02  -2.1884913676198943e-02  1.9927504911793275e-02  -1.4663831647194356e-02  6.7773649869971898e-03  2.5658739561888401e-03  -1.1916115006681594e-02  1.9792335350276268e-02  -2.4942435880418105e-02  2.6563534508865744e-02  -2.4442081618821228e-02  1.8988243401055212e-02  -1.1158469930480468e-02  2.2807546966115907e-03  6.1850323028354260e-03  -1.2907506000985995e-02  1.6916970492280234e-02  -1.7768875754732454e-02  1.5608095457486006e-02  -1.1123176194337893e-02  5.4002497464244329e-03  2.9504275734266745e-04  -4.7659624025053636e-03  7.1163003438337522e-03  -6.9214756278030854e-03  4.3069285172218710e-03  8.0773634377489037e-05  -5.2043878770625203e-03  9.8430538501108437e-03  -1.2836478903120650e-02  1.3319664694165147e-02  -1.0903239923532121e-02  5.7645734661464949e-03  1.3684776486067984e-03  -9.3391896316736799e-03  1.6767138410555601e-02  -2.2299273586025459e-02  2.4860437868173702e-02  -2.3856691321924410e-