<?xml version="1.0"?>
<VTKFile type="UnstructuredGrid"  version="0.1"  >
<UnstructuredGrid>
<Piece  NumberOfPoints="2601" NumberOfCells="5000">
<Points>
<DataArray  type="Float64"  NumberOfComponents="3"  format="ascii">-10 -10 0  -9.6 -10 0  -9.199999999999999 -10 0  -8.800000000000001 -10 0  -8.4 -10 0  -8 -10 0  -7.6 -10 0  -7.2 -10 0  -6.8 -10 0  -6.4 -10 0  -6 -10 0  -5.6 -10 0  -5.2 -10 0  -4.8 -10 0  -4.4 -10 0  -4 -10 0  -3.6 -10 0  -3.2 -10 0  -2.8 -10 0  -2.4 -10 0  -2 -10 0  -1.6 -10 0  -1.199999999999999 -10 0  -0.8000000000000007 -10 0  -0.4000000000000004 -10 0  0 -10 0  0.4000000000000004 -10 0  0.8000000000000007 -10 0  1.199999999999999 -10 0  1.6 -10 0  2 -10 0  2.4 -10 0  2.800000000000001 -10 0  3.199999999999999 -10 0  3.6 -10 0  4 -10 0  4.4 -10 0  4.800000000000001 -10 0  5.199999999999999 -10 0  5.6 -10 0  6 -10 0  6.399999999999999 -10 0  6.800000000000001 -10 0  7.199999999999999 -10 0  7.600000000000001 -10 0  8 -10 0  8.399999999999999 -10 0  8.800000000000001 -10 0  9.199999999999999 -10 0  9.600000000000001 -10 0  10 -10 0  -10 -9.6 0  -9.6 -9.6 0  -9.199999999999999 -9.6 0  -8.800000000000001 -9.6 0  -8.4 -9.6 0  -8 -9.6 0  -7.6 -9.6 0  -7.2 -9.6 0  -6.8 -9.6 0  -6.4 -9.6 0  -6 -9.6 0  -5.6 -9.6 0  -5.2 -9.6 0  -4.8 -9.6 0  -4.4 -9.6 0  -4 -9.6 0  -3.6 -9.6 0  -3.2 -9.6 0  -2.8 -9.6 0  -2.4 -9.6 0  -2 -9.6 0  -1.6 -9.6 0  -1.199999999999999 -9.6 0  -0.8000000000000007 -9.6 0  -0.4000000000000004 -9.6 0  0 -9.6 0  0.4000000000000004 -9.6 0  0.8000000000000007 -9.6 0  1.199999999999999 -9.6 0  1.6 -9.6 0  2 -9.6 0  2.4 -9.6 0  2.800000000000001 -9.6 0  3.199999999999999 -9.6 0  3.6 -9.6 0  4 -9.6 0  4.4 -9.6 0  4.800000000000001 -9.6 0  5.199999999999999 -9.6 0  5.6 -9.6 0  6 -9.6 0  6.399999999999999 -9.6 0  6.800000000000001 -9.6 0  7.199999999999999 -9.6 0  7.600000000000001 -9.6 0  8 -9.6 0  8.399999999999999 -9.6 0  8.800000000000001 -9.6 0  9.199999999999999 -9.6 0  9.600000000000001 -9.6 0  10 -9.6 0  -10 -9.199999999999999 0  -9.6 -9.199999999999999 0  -9.199999999999999 -9.199999999999999 0  -8.800000000000001 -9.199999999999999 0  -8.4 -9.199999999999999 0  -8 -9.199999999999999 0  -7.6 -9.199999999999999 0  -7.2 -9.199999999999999 0  -6.8 -9.199999999999999 0  -6.4 -9.199999999999999 0  -6 -9.199999999999999 0  -5.6 -9.199999999999999 0  -5.2 -9.199999999999999 0  -4.8 -9.199999999999999 0  -4.4 -9.199999999999999 0  -4 -9.199999999999999 0  -3.6 -9.199999999999999 0  -3.2 -9.199999999999999 0  -2.8 -9.199999999999999 0  -2.4 -9.199999999999999 0  -2 -9.199999999999999 0  -1.6 -9.199999999999999 0  -1.199999999999999 -9.199999999999999 0  -0.8000000000000007 -9.199999999999999 0  -0.4000000000000004 -9.199999999999999 0  0 -9.199999999999999 0  0.4000000000000004 -9.199999999999999 0  0.8000000000000007 -9.199999999999999 0  1.199999999999999 -9.199999999999999 0  1.6 -9.199999999999999 0  2 -9.199999999999999 0  2.4 -9.199999999999999 0  2.800000000000001 -9.199999999999999 0  3.199999999999999 -9.199999999999999 0  3.6 -9.199999999999999 0  4 -9.199999999999999 0  4.4 -9.199999999999999 0  4.800000000000001 -9.199999999999999 0  5.199999999999999 -9.199999999999999 0  5.6 -9.199999999999999 0  6 -9.199999999999999 0  6.399999999999999 -9.199999999999999 0  6.800000000000001 -9.199999999999999 0  7.199999999999999 -9.199999999999999 0  7.600000000000001 -9.199999999999999 0  8 -9.199999999999999 0  8.399999999999999 -9.199999999999999 0  8.800000000000001 -9.199999999999999 0  9.199999999999999 -9.199999999999999 0  9.600000000000001 -9.199999999999999 0  10 -9.199999999999999 0  -10 -8.800000000000001 0  -9.6 -8.800000000000001 0  -9.199999999999999 -8.800000000000001 0  -8.800000000000001 -8.800000000000001 0  -8.4 -8.800000000000001 0  -8 -8.800000000000001 0  -7.6 -8.800000000000001 0  -7.2 -8.800000000000001 0  -6.8 -8.800000000000001 0  -6.4 -8.800000000000001 0  -6 -8.800000000000001 0  -5.6 -8.800000000000001 0  -5.2 -8.800000000000001 0  -4.8 -8.800000000000001 0  -4.4 -8.800000000000001 0  -4 -8.800000000000001 0  -3.6 -8.800000000000001 0  -3.2 -8.800000000000001 0  -2.8 -8.800000000000001 0  -2.4 -8.800000000000001 0  -2 -8.800000000000001 0  -1.6 -8.800000000000001 0  -1.199999999999999 -8.800000000000001 0  -0.8000000000000007 -8.800000000000001 0  -0.4000000000000004 -8.800000000000001 0  0 -8.800000000000001 0  0.4000000000000004 -8.800000000000001 0  0.8000000000000007 -8.800000000000001 0  1.199999999999999 -8.800000000000001 0  1.6 -8.800000000000001 0  2 -8.800000000000001 0  2.4 -8.800000000000001 0  2.800000000000001 -8.800000000000001 0  3.199999999999999 -8.800000000000001 0  3.6 -8.800000000000001 0  4 -8.800000000000001 0  4.4 -8.800000000000001 0  4.800000000000001 -8.800000000000001 0  5.199999999999999 -8.800000000000001 0  5.6 -8.800000000000001 0  6 -8.800000000000001 0  6.399999999999999 -8.800000000000001 0  6.800000000000001 -8.800000000000001 0  7.199999999999999 -8.800000000000001 0  7.600000000000001 -8.800000000000001 0  8 -8.800000000000001 0  8.399999999999999 -8.800000000000001 0  8.800000000000001 -8.800000000000001 0  9.199999999999999 -8.800000000000001 0  9.600000000000001 -8.800000000000001 0  10 -8.800000000000001 0  -10 -8.4 0  -9.6 -8.4 0  -9.199999999999999 -8.4 0  -8.800000000000001 -8.4 0  -8.4 -8.4 0  -8 -8.4 0  -7.6 -8.4 0  -7.2 -8.4 0  -6.8 -8.4 0  -6.4 -8.4 0  -6 -8.4 0  -5.6 -8.4 0  -5.2 -8.4 0  -4.8 -8.4 0  -4.4 -8.4 0  -4 -8.4 0  -3.6 -8.4 0  -3.2 -8.4 0  -2.8 -8.4 0  -2.4 -8.4 0  -2 -8.4 0  -1.6 -8.4 0  -1.199999999999999 -8.4 0  -0.8000000000000007 -8.4 0  -0.4000000000000004 -8.4 0  0 -8.4 0  0.4000000000000004 -8.4 0  0.8000000000000007 -8.4 0  1.199999999999999 -8.4 0  1.6 -8.4 0  2 -8.4 0  2.4 -8.4 0  2.800000000000001 -8.4 0  3.199999999999999 -8.4 0  3.6 -8.4 0  4 -8.4 0  4.4 -8.4 0  4.800000000000001 -8.4 0  5.199999999999999 -8.4 0  5.6 -8.4 0  6 -8.4 0  6.399999999999999 -8.4 0  6.800000000000001 -8.4 0  7.199999999999999 -8.4 0  7.600000000000001 -8.4 0  8 -8.4 0  8.399999999999999 -8.4 0  8.800000000000001 -8.4 0  9.199999999999999 -8.4 0  9.600000000000001 -8.4 0  10 -8.4 0  -10 -8 0  -9.6 -8 0  -9.199999999999999 -8 0  -8.800000000000001 -8 0  -8.4 -8 0  -8 -8 0  -7.6 -8 0  -7.2 -8 0  -6.8 -8 0  -6.4 -8 0  -6 -8 0  -5.6 -8 0  -5.2 -8 0  -4.8 -8 0  -4.4 -8 0  -4 -8 0  -3.6 -8 0  -3.2 -8 0  -2.8 -8 0  -2.4 -8 0  -2 -8 0  -1.6 -8 0  -1.199999999999999 -8 0  -0.8000000000000007 -8 0  -0.4000000000000004 -8 0  0 -8 0  0.4000000000000004 -8 0  0.8000000000000007 -8 0  1.199999999999999 -8 0  1.6 -8 0  2 -8 0  2.4 -8 0  2.800000000000001 -8 0  3.199999999999999 -8 0  3.6 -8 0  4 -8 0  4.4 -8 0  4.800000000000001 -8 0  5.199999999999999 -8 0  5.6 -8 0  6 -8 0  6.399999999999999 -8 0  6.800000000000001 -8 0  7.199999999999999 -8 0  7.600000000000001 -8 0  8 -8 0  8.399999999999999 -8 0  8.800000000000001 -8 0  9.199999999999999 -8 0  9.600000000000001 -8 0  10 -8 0  -10 -7.6 0  -9.6 -7.6 0  -9.199999999999999 -7.6 0  -8.800000000000001 -7.6 0  -8.4 -7.6 0  -8 -7.6 0  -7.6 -7.6 0  -7.2 -7.6 0  -6.8 -7.6 0  -6.4 -7.6 0  -6 -7.6 0  -5.6 -7.6 0  -5.2 -7.6 0  -4.8 -7.6 0  -4.4 -7.6 0  -4 -7.6 0  -3.6 -7.6 0  -3.2 -7.6 0  -2.8 -7.6 0  -2.4 -7.6 0  -2 -7.6 0  -1.6 -7.6 0  -1.199999999999999 -7.6 0  -0.8000000000000007 -7.6 0  -0.4000000000000004 -7.6 0  0 -7.6 0  0.4000000000000004 -7.6 0  0.8000000000000007 -7.6 0  1.199999999999999 -7.6 0  1.6 -7.6 0  2 -7.6 0  2.4 -7.6 0  2.800000000000001 -7.6 0  3.199999999999999 -7.6 0  3.6 -7.6 0  4 -7.6 0  4.4 -7.6 0  4.800000000000001 -7.6 0  5.199999999999999 -7.6 0  5.6 -7.6 0  6 -7.6 0  6.399999999999999 -7.6 0  6.800000000000001 -7.6 0  7.199999999999999 -7.6 0  7.600000000000001 -7.6 0  8 -7.6 0  8.399999999999999 -7.6 0  8.800000000000001 -7.6 0  9.199999999999999 -7.6 0  9.600000000000001 -7.6 0  10 -7.6 0  -10 -7.2 0  -9.6 -7.2 0  -9.199999999999999 -7.2 0  -8.800000000000001 -7.2 0  -8.4 -7.2 0  -8 -7.2 0  -7.6 -7.2 0  -7.2 -7.2 0  -6.8 -7.2 0  -6.4 -7.2 0  -6 -7.2 0  -5.6 -7.2 0  -5.2 -7.2 0  -4.8 -7.2 0  -4.4 -7.2 0  -4 -7.2 0  -3.6 -7.2 0  -3.2 -7.2 0  -2.8 -7.2 0  -2.4 -7.2 0  -2 -7.2 0  -1.6 -7.2 0  -1.199999999999999 -7.2 0  -0.8000000000000007 -7.2 0  -0.4000000000000004 -7.2 0  0 -7.2 0  0.4000000000000004 -7.2 0  0.8000000000000007 -7.2 0  1.199999999999999 -7.2 0  1.6 -7.2 0  2 -7.2 0  2.4 -7.2 0  2.800000000000001 -7.2 0  3.199999999999999 -7.2 0  3.6 -7.2 0  4 -7.2 0  4.4 -7.2 0  4.800000000000001 -7.2 0  5.199999999999999 -7.2 0  5.6 -7.2 0  6 -7.2 0  6.399999999999999 -7.2 0  6.800000000000001 -7.2 0  7.199999999999999 -7.2 0  7.600000000000001 -7.2 0  8 -7.2 0  8.399999999999999 -7.2 0  8.800000000000001 -7.2 0  9.199999999999999 -7.2 0  9.600000000000001 -7.2 0  10 -7.2 0  -10 -6.8 0  -9.6 -6.8 0  -9.199999999999999 -6.8 0  -8.800000000000001 -6.8 0  -8.4 -6.8 0  -8 -6.8 0  -7.6 -6.8 0  -7.2 -6.8 0  -6.8 -6.8 0  -6.4 -6.8 0  -6 -6.8 0  -5.6 -6.8 0  -5.2 -6.8 0  -4.8 -6.8 0  -4.4 -6.8 0  -4 -6.8 0  -3.6 -6.8 0  -3.2 -6.8 0  -2.8 -6.8 0  -2.4 -6.8 0  -2 -6.8 0  -1.6 -6.8 0  -1.199999999999999 -6.8 0  -0.8000000000000007 -6.8 0  -0.4000000000000004 -6.8 0  0 -6.8 0  0.4000000000000004 -6.8 0  0.8000000000000007 -6.8 0  1.199999999999999 -6.8 0  1.6 -6.8 0  2 -6.8 0  2.4 -6.8 0  2.800000000000001 -6.8 0  3.199999999999999 -6.8 0  3.6 -6.8 0  4 -6.8 0  4.4 -6.8 0  4.800000000000001 -6.8 0  5.199999999999999 -6.8 0  5.6 -6.8 0  6 -6.8 0  6.399999999999999 -6.8 0  6.800000000000001 -6.8 0  7.199999999999999 -6.8 0  7.600000000000001 -6.8 0  8 -6.8 0  8.399999999999999 -6.8 0  8.800000000000001 -6.8 0  9.199999999999999 -6.8 0  9.600000000000001 -6.8 0  10 -6.8 0  -10 -6.4 0  -9.6 -6.4 0  -9.199999999999999 -6.4 0  -8.800000000000001 -6.4 0  -8.4 -6.4 0  -8 -6.4 0  -7.6 -6.4 0  -7.2 -6.4 0  -6.8 -6.4 0  -6.4 -6.4 0  -6 -6.4 0  -5.6 -6.4 0  -5.2 -6.4 0  -4.8 -6.4 0  -4.4 -6.4 0  -4 -6.4 0  -3.6 -6.4 0  -3.2 -6.4 0  -2.8 -6.4 0  -2.4 -6.4 0  -2 -6.4 0  -1.6 -6.4 0  -1.199999999999999 -6.4 0  -0.8000000000000007 -6.4 0  -0.4000000000000004 -6.4 0  0 -6.4 0
[...]
<PointData  Scalars="f_467"> 
<DataArray  type="Float64"  Name="f_467"  format="ascii">-4.8942571079297241e-05  3.3562346939554561e-04  -6.1384032967644114e-04  9.0243467234766748e-04  -1.2032140122054632e-03  1.5128906586261105e-03  -1.8247316495527280e-03  2.1300346784828934e-03  -2.4199934816795630e-03  2.6875839612037376e-03  -2.9290242112528968e-03  3.1444556048700243e-03  -3.3376814543695748e-03  3.5150274104067394e-03  -3.6836012085196676e-03  3.8493746204548546e-03  -4.0155537828495133e-03  4.1816342659726736e-03  -4.3433699978471484e-03  4.4936648214725485e-03  -4.6241702610347194e-03  4.7272024789834135e-03  -4.7975135532207745e-03  4.8334878237787909e-03  -4.8374731900236393e-03  4.8151676914918919e-03  -4.7742102025160648e-03  4.7223177739790043e-03  -4.6654214029149526e-03  4.6062530437110741e-03  -4.5437260073658090e-03  4.4732594073960512e-03  -4.3879669517866930e-03  4.2804217957127357e-03  -4.1445677962369228e-03  3.9773139727582165e-03  -3.7794234814478378e-03  3.5554820303962658e-03  -3.3129520964508353e-03  3.0605424712863583e-03  -2.8062879011006439e-03  2.5558044974854826e-03  -2.3111435332268991e-03  2.0705206463044377e-03  -1.8289855492959861e-03  1.5798680316824450e-03  -1.3166470499754886e-03  1.0347768576187434e-03  -7.3292307756156634e-04  4.1217154718435492e-04  -6.0420480800971384e-05  3.2543867664640866e-04  -1.5996009429173333e-03  2.9126696448012815e-03  -4.2835844060001328e-03  5.7149672951824172e-03  -7.1903659474848534e-03  8.6770370598962168e-03  -1.0132682560895395e-02  1.1514498748045188e-02  -1.2788367380760201e-02  1.3935970505793611e-02  -1.4958110916897969e-02  1.5873437228719551e-02  -1.6712888281950340e-02  1.7511209310619502e-02  -1.8297601514104159e-02  1.9087777967826340e-02  -1.9879356002275295e-02  2.0651706592176560e-02  -2.1370299502951016e-02  2.1994492300628023e-02  -2.2486874590010000e-02  2.2821902566469935e-02  -2.2991730447870350e-02  2.3007825708205705e-02  -2.2897978217456622e-02  2.2699430405981713e-02  -2.2449796803516046e-02  2.2177976911035957e-02  -2.1897266456120029e-02  2.1602337941797601e-02  -2.1270821630154160e-02  2.0869101873023647e-02  -2.0360919389993428e-02  1.9716690034851960e-02  -1.8921275894914182e-02  1.7978320804443077e-02  -1.6910095365263354e-02  1.5752887447000170e-02  -1.4549053885468930e-02  1.3337659716888240e-02  -1.2145974138703794e-02  1.0983882960782166e-02  -9.8425695981062648e-03  8.6977799768183321e-03  -7.5168733051837128e-03  6.2679386426429708e-03  -4.9287504692465591e-03  3.4933610632768464e-03  -1.9747360506218439e-03  4.0392154819139073e-04  -4.9664508983947601e-04  2.4302880017771662e-03  -4.4355302142425499e-03  6.5481423074748284e-03  -8.7736718319982535e-03  1.1083774025345279e-02  -1.3421032614217293e-02  1.5710932822035933e-02  -1.7878036033331105e-02  1.9862426541712348e-02  -2.1632446697629603e-02  2.3190637406027774e-02  -2.4571450304802185e-02  2.5831293505574681e-02  -2.7033333366514038e-02  2.8230745179795513e-02  -2.9452482523202695e-02  3.0695022502838388e-02  -3.1922093965540535e-02  3.3072457369489078e-02  -3.4073852294577628e-02  3.4859730933104412e-02  -3.5384720036393695e-02  3.5635062759359029e-02  -3.5631509707967218e-02  3.5423960830001586e-02  -3.5079160373782392e-02  3.4664433617723686e-02  -3.4231412082124407e-02  3.3803696683090738e-02  -3.3371451383849234e-02  3.2894236890854946e-02  -3.2311393603654474e-02  3.1557451056183766e-02  -3.0578819801902610e-02  2.9347712066516925e-02  -2.7869908568319200e-02  2.6184483766924439e-02  -2.4355552291963026e-02  2.2458036481298009e-02  -2.0560904456312666e-02  1.8711942704281687e-02  -1.6927753122004265e-02  1.5191395599567833e-02  -1.3458241705702229e-02  1.1668610983634977e-02  -9.7641147839159937e-03  7.7037349927875807e-03  -5.4757417616320041e-03  3.1026161453844054e-03  -6.3799112011192352e-04  5.2882930069260143e-04  -2.5901849291736236e-03  4.7574346856459043e-03  -7.0853293298181940e-03  9.5846427473825803e-03  -1.2217305966832645e-02  1.4903412274285837e-02  -1.7538427865402738e-02  2.0016431470468745e-02  -2.2253747304178992e-02  2.4207242637827919e-02  -2.5882858026157321e-02  2.7332307991692898e-02  -2.8638760902116981e-02  2.9894979717542337e-02  -3.1179234031712990e-02  3.2534834046444291e-02  -3.3958257287272968e-02  3.5398752992686376e-02  -3.6769523571778123e-02  3.7967773158499335e-02  -3.8898761952190442e-02  3.9498032204712916e-02  -3.9746416737035863e-02  3.9674191545397232e-02  -3.9353368430156126e-02  3.8880001074003773e-02  -3.8350801121193635e-02  3.7839739089301230e-02  -3.7380308638730965e-02  3.6957756622746703e-02  -3.6513161354244913e-02  3.5958365875591300e-02  -3.5198138215737966e-02  3.4154175788019610e-02  -3.2785124995538671e-02  3.1097753152427254e-02  -2.9146558094839983e-02  2.7021906377605678e-02  -2.4829575332914335e-02  2.2666659434472616e-02  -2.0599683762453774e-02  1.8650230282948290e-02  -1.6791558351603262e-02  1.4957032110795699e-02  -1.3058301970960286e-02  1.1008818471406457e-02  -8.7469664560387468e-03  6.2532031083902470e-03  -3.5570413803416938e-03  7.3214427219091174e-04  -4.0816960586273352e-04  2.0055740114865964e-03  -3.7457422793431942e-03  5.7041997906978259e-03  -7.8991569328858893e-03  1.0285201003503594e-02  -1.2762425793860896e-02  1.5198811289214145e-02  -1.7460435864460000e-02  1.9442196385285625e-02  -2.1091589412364022e-02  2.2419789597604031e-02  -2.3497344365129624e-02  2.4435536287266989e-02  -2.5357942011414246e-02  2.6369093875370970e-02  -2.7527853952481272e-02  2.8831964271761355e-02  -3.0217525684560504e-02  3.1573533850832190e-02  -3.2767947864708186e-02  3.3678967931357363e-02  -3.4223935571545107e-02  3.4378846392039392e-02  -3.4183744529286623e-02  3.3732692725208228e-02  -3.3150756270003891e-02  3.2563587642354737e-02  -3.2066994478589225e-02  3.1703875341396598e-02  -3.1454119074063876e-02  3.1239915515713604e-02  -3.0945185519663677e-02  3.0444410483038913e-02  -2.9633860860820725e-02  2.8457641005902156e-02  -2.6922226876052134e-02  2.5095964854055103e-02  -2.3093651403427461e-02  2.1049932841078853e-02  -1.9087977846973740e-02  1.7291022054509563e-02  -1.5683685846138030e-02  1.4227593331870528e-02  -1.2832349455810008e-02  1.1379203944314737e-02  -9.7516512373555519e-03  7.8655325335780790e-03  -5.6913270488588904e-03  3.2632084593671343e-03  -6.7263500357623305e-04  1.5678826819846386e-04  -7.8372218490073463e-04  1.5922426390530032e-03  -2.6801923047980957e-03  4.0750360377463241e-03  -5.7260848528177845e-03  7.5156848517361598e-03  -9.2866677329801785e-03  1.0879409675562439e-02  -1.2169512555655123e-02  1.3096968481451863e-02  -1.3679736447596883e-02  1.4008440777592678e-02  -1.4223482675448314e-02  1.4480122446346375e-02  -1.4910008933889914e-02  1.5588493077549405e-02  -1.6515659459344627e-02  1.7615678791127517e-02  -1.8754639845527544e-02  1.9772533605167699e-02  -2.0521630222279739e-02  2.0901937051291647e-02  -2.0885136684834688e-02  2.0521197888347328e-02  -1.9926059599793548e-02  1.9253378775858442e-02  -1.8657201087605296e-02  1.8254613902400234e-02  -1.8097444857707538e-02  1.8159872228214177e-02  -1.8344951737579138e-02  1.8508471888478300e-02  -1.8494345886319812e-02  1.8172946748767661e-02  -1.7473080549557856e-02  1.6399836158815156e-02  -1.5033978169401187e-02  1.3513029868941224e-02  -1.1998636735693010e-02  1.0638129682562865e-02  -9.5296153825355327e-03  8.6990632950314558e-03  -8.0949468181643301e-03  7.6017348574916035e-03  -7.0689546611442649e-03  6.3487668455937491e-03  -5.3329274423425527e-03  3.9801595611419190e-03  -2.3272818859614969e-03  4.8138064169796148e-04  1.7146738222404055e-04  -8.1294400746261095e-04  1.2332557395823937e-03  -1.3115144155171150e-03  1.0099956641736992e-03  -3.8335662241320323e-04  -4.3455857109120306e-04  1.2631243100464221e-03  -1.9186890937904295e-03  2.2590654828887904e-03  -2.2179597905581960e-03  1.8209889561733323e-03  -1.1793992093416218e-03  4.6301184352845714e-04  1.4103795203552566e-04  -4.7375702159106259e-04  4.4291453377984051e-04  -4.5457050029749171e-05  -6.3172025708144815e-04  1.4328307053709578e-03  -2.1709710015304982e-03  2.6734458650728068e-03  -2.8236443035367835e-03  2.5893060423427447e-03  -2.0303210695626953e-03  1.2841714035940984e-03  -5.3255091292550702e-04  -4.2734803515532039e-05  3.0388505070290964e-04  -1.9053208958860025e-04  -2.6563171118242638e-04  9.4857404108378903e-04  -1.6861151666580942e-03  2.2917479079035781e-03  -2.6099345313191718e-03  2.5538861254439781e-03  -2.1266567825070949e-03  1.4204336642925114e-03  -5.9419701973729912e-04  -1.6482591741669988e-04  6.8655683150043790e-04  -8.5929337437389008e-04  6.5676094368177676e-04  -1.4442453854704361e-04  -5.3647026442313567e-04  1.2032524700145372e-03  -1.6762368086732655e-03  1.8224102365594697e-03  -1.5877880402481832e-03  1.0105843406760689e-03  -2.1199889202714261e-04  -5.0395799647439397e-04  2.4303425967713175e-03  -4.0967462950960275e-03  5.3596428483966953e-03  -6.1711318804459113e-03  6.5895571551288648e-03  -6.7643592827988696e-03  6.8988432730217215e-03  -7.1998985223839370e-03  7.8268752002848690e-03  -8.8520247940391730e-03  1.0242106921993309e-02  -1.1865627283249545e-02  1.3523952735102903e-02  -1.4998756053898117e-02  1.6104279035957309e-02  -1.6731736023315295e-02  1.6875085845580111e-02  -1.6631922942319230e-02  1.6179274600758648e-02  -1.5730182064965126e-02  1.5481603799937753e-02  -1.5566285191423095e-02  1.6020274809365222e-02  -1.6773969508266106e-02  1.7668860196821640e-02  -1.8495912977463207e-02  1.9046269744726636e-02  -1.9161963974275140e-02  1.8774343836946292e-02  -1.7920879247088899e-02  1.6736274769315471e-02  -1.5420047337536493e-02  1.4188437541099920e-02  -1.3222325652094656e-02  1.2623791568679434e-02  -1.2391859008355583e-02  1.2423307259847426e-02  -1.2538349668536668e-02  1.2524942530675499e-02  -1.2190966207990936e-02  1.1411611141841393e-02  -1.0160463827263023e-02  8.5167462240214788e-03  -6.6469492063488669e-03  4.7653154442635738e-03  -3.0827607922225262e-03  1.7566291618999713e-03  -8.5347343886749973e-04  3.3389240594609507e-04  -6.3099740136656716e-05  7.6684028960055282e-04  -3.7085177816073116e-03  6.3536854556858332e-03  -8.5377514217620052e-03  1.0203830788033389e-02  -1.1414716407994857e-02  1.2335833184075665e-02  -1.3193320276022659e-02  1.4217419836979998e-02  -1.5584916048704938e-02  1.7374597932970023e-02  -1.9546559056169428e-02  2.1950361766656483e-02  -2.4360090221264851e-02  2.6527790425573423e-02  -2.8242334827952499e-02  2.9379431978129287e-02  -2.9930651702719208e-02  3.0004427933534011e-02  -2.9798801558379103e-02  2.9552522685455128e-02  -2.9486382987552878e-02  2.9749017290913705e-02  -3.0380329648902606e-02  3.1301418619040525e-02  -3.2333447782490192e-02  3.3240879946888471e-02  -3.3788583126681711e-02  3.3798948478649803e-02  -3.3195159628140972e-02  3.2020112445073315e-02  -3.0426394853175387e-02  2.8639758258615880e-02  -2.6904946236189164e-02  2.5427025326227128e-02  -2.4322454461144463e-02  2.3591764005525932e-02  -2.3120470427864182e-02  2.2707998500773176e-02  -2.2117586306210014e-02  2.1135054715913575e-02  -1.9622172650796597e-02  1.7551660535111955e-02  -1.5015331704243006e-02  1.2203390849878027e-02  -9.3599090883476274e-03  6.7252763900844739e-03  -4.4795933076761220e-03  2.7007351458989103e-03  -1.3472591610239348e-03  2.7029623775305341e-04  -9.0295903705979398e-04  4.3688626285019244e-03  -7.5052164467808730e-03  1.0128852174717972e-02  -1.2175954837109634e-02  1.3715330346522137e-02  -1.4929519985964569e-02  1.6068353435044529e-02  -1.7386220000870787e-02  1.9078288609768450e-02  -2.1231160714207310e-02  2.3799938380631359e-02  -2.6617278473723586e-02  2.9432241959175608e-02  -3.1969517171411874e-02  3.3994651127142492e-02  -3.5369465750647401e-02  3.6084217472090709e-02  -3.6258702388682923e-02  3.6112045239407968e-02  -3.5908508847637577e-02  3.5892479543492360e-02  -3.6228409974620943e-02  3.6960295444969787e-02  -3.8000519429328992e-02  3.9150775971401326e-02  -4.0149991031930357e-02  4.0737612429282297e-02  -4.0716909677997334e-02  4.0002921085693810e-02  -3.8643413038916372e-02  3.6807764160699766e-02  -3.4746472620341598e-02  3.2731112123950731e-02  -3.0989306724777906e-02  2.9650502131824564e-02  -2.8715690124668576e-02  2.8058427980468970e-02  -2.7456899126368468e-02  2.6649227904490615e-02  -2.5398616643333947e-02  2.3552490340350604e-02  -2.1081287739851701e-02  1.8087478332541658e-02  -1.4782610532773134e-02  1.1437955176529896e-02  -8.3207161403413363e-03  5.6312826486063471e-03  -3.4567446554624728e-03  1.7519442202452297e-03  -3.5265294050277392e-04  8.8569120046744036e-04  -4.2816081237770408e-03  7.3190439982183993e-03  -9.7992035209813547e-03  1.1653807484611745e-02  -1.2959596431340110e-02  1.3917669168775806e-02  -1.4802678642074307e-02  1.5894221526186549e-02  -1.7407079221063382e-02  1.9437245891495585e-02  -2.1936847606508804e-02  2.4724044942051066e-02  -2.7525521988748660e-02  3.0041256458982309e-02  -3.2015858471506016e-02  3.3299171728791238e-02  -3.3881436283730360e-02  3.3894485690379443e-02  -3.3578693515465184e-02  3.3223695277001059e-02  -3.3097275842486382e-02  3.3379683049610531e-02  -3.4119310732291817e-02  3.5220506952558697e-02  -3.6466467728273548e-02  3.7571659942611586e-02  -3.8251051256768628e-02  3.8289346281181164e-02  -3.7593426543380729e-02  3.6215267511579240e-02  -3.4339770947636170e-02  3.2240465071050321e-02  -3.0213821989065741e-02  2.8508130867375053e-02  -2.7264184884450021e-02  2.6482173322463914e-02  -2.6022808072768536e-02  2.5642405710352152e-02  -2.5053405460266361e-02  2.3995629496978779e-02  -2.2300985282402829e-02  1.9935901173492629e-02  -1.7011190582140002e-02  1.3756944724238747e-02  -1.0468541301981375e-02  7.4368662414479375e-03  -4.8796759747158523e-03  2.8907514527339506e-03  -1.4191757750682151e-03  2.8375654704308983e-04  -7.2538232673409779e-04  3.4971982570253866e-03  -5.8856275264434609e-03  7.6791033005427995e-03  -8.8072128168935233e-03  9.3563721965996757e-03  -9.5474610070216993e-03  9.6808496096968070e-03  -1.0062165964481904e-02  1.0926821331566750e-02  -1.2381616114444390e-02  1.4377601042529293e-02  -1.6720784182984096e-02  1.9118089052064399e-02  -2.1247414838262056e-02  2.2834800390505654e-02  -2.3719969583381271e-02  2.3894355252205735e-02  -2.3502378300224117e-02  2.2805674559332509e-02  -2.2118954893365409e-02  2.1733066299994989e-02  -2.1843928675373908e-02  2.2504594178678849e-02  -2.3612065144498130e-02  2.4932069996184355e-02  -2.6155785085960868e-02  2.6974736754063772e-02  -2.7155706362542276e-02  2.6597459980508355e-02  -2.5355535199642600e-02  2.3629069021612336e-02  -2.1712863451101752e-02  1.9926320382716734e-02  -1.8536490741187666e-02  1.7693910667566870e-02  -1.7396793746567607e-02  1.7492265927573272e-02  -1.7714339537853750e-02  1.7749406934170230e-02  -1.7313354935806980e-02  1.6221581324151618e-02  -1.4434917094512762e-02  1.2070305531767349e-02  -9.3736426431718055e-03  6.6613657269356287e-03  -4.2449619050644568e-03  2.3567127219279163e-03  -1.0946906162131501e-03  4.0035114909250041e-04  -7.4153024043508266e-05  4.6681215039312253e-04  -2.2339360155454882e-03  3.5960549723830539e-03  -4.3310757901065715e-03  4.3681377148813054e-03  -3.8043920143958883e-03  2.8810132740638922e-03  -1.9242659573416366e-03  1.2659304528043066e-03  -1.1624011510511902e-03  1.7320915780180152e-03  -2.9263388454312603e-03  4.5408692362776393e-03  -6.2650438822457154e-03  7.7569339042540542e-03  -8.7260070277460217e-03  9.0033595578045082e-03  -8.5824504820853267e-03  7.6204537085070344e-03  -6.3999008834053307e-03  5.2599244614267076e-03  -4.5137882683198337e-03  4.3727203381803536e-03  -4.8945333771630087e-03  5.9695021123123675e-03  -7.3469257170855487e-03  8.6959286682833283e-03  -9.6857456353052034e-03  1.0066005380063600e-02  -9.7275312525452063e-03  8.7289019508249178e-03  -7.2823267650684986e-03  5.7022627809730844e-03  -4.3292434708412028e-03  3.4474035810319104e-03  -3.2157151127312242e-03  3.6296215134593098e-03  -4.5223800143505428e-03  5.6057847205030252e-03  -6.5403869943236386e-03  7.0181703955190210e-03  -6.8376147001188350e-03  5.9529315474583589e-03  -4.4855212849545852e-03  2.6948700003416319e-03  -9.1594806820086160e-04  -5.2169825333855740e-04  1.3735283912811700e-03  -1.5389503487026038e-03  1.0853219936123935e-03  -2.3118766727716331e-04  -1.7830496864407641e-04  8.2489865087709995e-04  -1.0469683091649550e-03  6.1317442695453756e-04  5.4710018466421547e-04  -2.3259332276447950e-03  4.4623836952318646e-03  -6.6051599757579373e-03  8.3972281498630088e-03  -9.5618303711687471e-03  9.9690393265709706e-03  -9.6666993781960569e-03  8.8682475346161527e-03  -7.9003719574894504e-03  7.1232129733328877e-03  -6.8424748011534364e-03  7.2347796044982026e-03  -8.3043816812781810e-03  9.8817482387068747e-03  -1.1664353586488624e-02  1.3289787783981967e-02  -1.4423438772016545e-02  1.4839469169566806e-02  -1.4475437115398688e-02  1.3447304745934797e-02  -1.2021192680619346e-02  1.0548734909106312e-02  -9.3817222598562948e-03  8.7867493119822161e-03  -8.8805786515354194e-03  9.6019083311556560e-03  -1.0726394503716508e-02  1.1921283373733330e-02  -1.2826393815215772e-02  1.3141797076678464e-02  -1.2700914369607666e-02  1.1511291018471882e-02  -9.7531511376977922e-03  7.7360816706522097e-03  -5.8243554883316640e-03  4.3490146662014976e-03  -3.5280478021814895e-03  3.4140304165790557e-03  -3.8819334149518144e-03  4.6600559313623065e-03  -5.3965734447472919e-03  5.7455491496162933e-03  -5.4515323413483379e-03  4.4122112900941935e-03  -2.7039134534323403e-03  5.6376181436055693e-04  -6.4872477437229818e-05  3.6299453783333381e-04  -1.1043863096038115e-03  2.5294252036772856e-03  -4.7088913658434482e-03  7.5251789523032861e-03  -1.0699248048284015e-02  1.3856782635708154e-02  -1.6617504444596976e-02  1.8685972604630178e-02  -1.9921838646096233e-02  2.0372511388191537e-02  -2.0260309347170709e-02  1.9927223566388159e-02  -1.9750701009295747e-02  2.0050891973192337e-02  -2.1011876582763381e-02  2.2635992556012965e-02  -2.4742352684900625e-02  2.7009916628478785e-02  -2.9054667696480834e-02  3.0522167518001440e-02  -3.1173029452822656e-02  3.0940568844399070e-02  -2.9946639691812098e-02  2.8471815099887429e-02  -2.6887148195227705e-02  2.5564073804298249e-02  -2.4784316529382077e-02  2.4671669304034683e-02  -2.5162198409312587e-02  2.6020105715955491e-02  -2.6895399051223758e-02  2.7409373092236882e-02  -2.7247155540585426e-02  2.6234856531371618e-02  -2.4382595312070161e-02  2.1882958978324943e-02  -1.9065263174935208e-02  1.6316709681455488e-02  -1.3989570187014858e-02  1.2316915746495549e-02  -1.1357338051186869e-02  1.0982072545075938e-02  -1.0907643566528395e-02  1.0766104106431522e-02  -1.0195819454210496e-02  8.9307576492598500e-03  -6.8666121903744864e-03  4.0877051202527432e-03  -8.4813466670734781e-04  1.9879677757954939e-04  -1.0181211359974519e-03  2.2998058906285733e-03  -4.2939643124982356e-03  7.0728774385452019e-03  -1.0511299870030261e-02  1.4314732461475686e-02  -1.8088809231813871e-02  2.1432965721329512e-02  -2.4035664564185925e-02  2.5748074365129263e-02  -2.6618327295016862e-02  2.6878047630530123e-02  -2.6884427468499578e-02  2.7031912836427859e-02  -2.7654940262127274e-02  2.8945334988902924e-02  -3.0904424078099724e-02  3.3341492032304382e-02  -3.5918960293600526e-02  3.8233330326876272e-02  -3.9912251472529164e-02  4.0704158757958214e-02  -4.0538729105498258e-02  3.9543484629957992e-02  -3.8012514440366650e-02  3.6334905377629768e-02  -3.4900250406921587e-02  3.4004166140681608e-02  -3.3776749526697472e-02  3.4151335395803471e-02  -3.4881137856182666e-02  3.5599736118390325e-02  -3.5910725028378811e-02  3.5484771569367912e-02  -3.4140520824099338e-02  3.1889712158629027e-02  -2.8935552583624409e-02  2.5624735380054740e-02  -2.2364742525014733e-02  1.9526492727087660e-02  -1.7355954314202192e-02  1.5916166083625092e-02  -1.5073729953411106e-02  1.4533047010678002e-02  -1.3909982071041117e-02  1.2827073590350973e-02  -1.1007175883499