<?xml version="1.0"?>
<VTKFile type="UnstructuredGrid"  version="0.1"  >
<UnstructuredGrid>
<Piece  NumberOfPoints="2601" NumberOfCells="5000">
<Points>
<DataArray  type="Float64"  NumberOfComponents="3"  format="ascii">-10 -10 0  -9.6 -10 0  -9.199999999999999 -10 0  -8.800000000000001 -10 0  -8.4 -10 0  -8 -10 0  -7.6 -10 0  -7.2 -10 0  -6.8 -10 0  -6.4 -10 0  -6 -10 0  -5.6 -10 0  -5.2 -10 0  -4.8 -10 0  -4.4 -10 0  -4 -10 0  -3.6 -10 0  -3.2 -10 0  -2.8 -10 0  -2.4 -10 0  -2 -10 0  -1.6 -10 0  -1.199999999999999 -10 0  -0.8000000000000007 -10 0  -0.4000000000000004 -10 0  0 -10 0  0.4000000000000004 -10 0  0.8000000000000007 -10 0  1.199999999999999 -10 0  1.6 -10 0  2 -10 0  2.4 -10 0  2.800000000000001 -10 0  3.199999999999999 -10 0  3.6 -10 0  4 -10 0  4.4 -10 0  4.800000000000001 -10 0  5.199999999999999 -10 0  5.6 -10 0  6 -10 0  6.399999999999999 -10 0  6.800000000000001 -10 0  7.199999999999999 -10 0  7.600000000000001 -10 0  8 -10 0  8.399999999999999 -10 0  8.800000000000001 -10 0  9.199999999999999 -10 0  9.600000000000001 -10 0  10 -10 0  -10 -9.6 0  -9.6 -9.6 0  -9.199999999999999 -9.6 0  -8.800000000000001 -9.6 0  -8.4 -9.6 0  -8 -9.6 0  -7.6 -9.6 0  -7.2 -9.6 0  -6.8 -9.6 0  -6.4 -9.6 0  -6 -9.6 0  -5.6 -9.6 0  -5.2 -9.6 0  -4.8 -9.6 0  -4.4 -9.6 0  -4 -9.6 0  -3.6 -9.6 0  -3.2 -9.6 0  -2.8 -9.6 0  -2.4 -9.6 0  -2 -9.6 0  -1.6 -9.6 0  -1.199999999999999 -9.6 0  -0.8000000000000007 -9.6 0  -0.4000000000000004 -9.6 0  0 -9.6 0  0.4000000000000004 -9.6 0  0.8000000000000007 -9.6 0  1.199999999999999 -9.6 0  1.6 -9.6 0  2 -9.6 0  2.4 -9.6 0  2.800000000000001 -9.6 0  3.199999999999999 -9.6 0  3.6 -9.6 0  4 -9.6 0  4.4 -9.6 0  4.800000000000001 -9.6 0  5.199999999999999 -9.6 0  5.6 -9.6 0  6 -9.6 0  6.399999999999999 -9.6 0  6.800000000000001 -9.6 0  7.199999999999999 -9.6 0  7.600000000000001 -9.6 0  8 -9.6 0  8.399999999999999 -9.6 0  8.800000000000001 -9.6 0  9.199999999999999 -9.6 0  9.600000000000001 -9.6 0  10 -9.6 0  -10 -9.199999999999999 0  -9.6 -9.199999999999999 0  -9.199999999999999 -9.199999999999999 0  -8.800000000000001 -9.199999999999999 0  -8.4 -9.199999999999999 0  -8 -9.199999999999999 0  -7.6 -9.199999999999999 0  -7.2 -9.199999999999999 0  -6.8 -9.199999999999999 0  -6.4 -9.199999999999999 0  -6 -9.199999999999999 0  -5.6 -9.199999999999999 0  -5.2 -9.199999999999999 0  -4.8 -9.199999999999999 0  -4.4 -9.199999999999999 0  -4 -9.199999999999999 0  -3.6 -9.199999999999999 0  -3.2 -9.199999999999999 0  -2.8 -9.199999999999999 0  -2.4 -9.199999999999999 0  -2 -9.199999999999999 0  -1.6 -9.199999999999999 0  -1.199999999999999 -9.199999999999999 0  -0.8000000000000007 -9.199999999999999 0  -0.4000000000000004 -9.199999999999999 0  0 -9.199999999999999 0  0.4000000000000004 -9.199999999999999 0  0.8000000000000007 -9.199999999999999 0  1.199999999999999 -9.199999999999999 0  1.6 -9.199999999999999 0  2 -9.199999999999999 0  2.4 -9.199999999999999 0  2.800000000000001 -9.199999999999999 0  3.199999999999999 -9.199999999999999 0  3.6 -9.199999999999999 0  4 -9.199999999999999 0  4.4 -9.199999999999999 0  4.800000000000001 -9.199999999999999 0  5.199999999999999 -9.199999999999999 0  5.6 -9.199999999999999 0  6 -9.199999999999999 0  6.399999999999999 -9.199999999999999 0  6.800000000000001 -9.199999999999999 0  7.199999999999999 -9.199999999999999 0  7.600000000000001 -9.199999999999999 0  8 -9.199999999999999 0  8.399999999999999 -9.199999999999999 0  8.800000000000001 -9.199999999999999 0  9.199999999999999 -9.199999999999999 0  9.600000000000001 -9.199999999999999 0  10 -9.199999999999999 0  -10 -8.800000000000001 0  -9.6 -8.800000000000001 0  -9.199999999999999 -8.800000000000001 0  -8.800000000000001 -8.800000000000001 0  -8.4 -8.800000000000001 0  -8 -8.800000000000001 0  -7.6 -8.800000000000001 0  -7.2 -8.800000000000001 0  -6.8 -8.800000000000001 0  -6.4 -8.800000000000001 0  -6 -8.800000000000001 0  -5.6 -8.800000000000001 0  -5.2 -8.800000000000001 0  -4.8 -8.800000000000001 0  -4.4 -8.800000000000001 0  -4 -8.800000000000001 0  -3.6 -8.800000000000001 0  -3.2 -8.800000000000001 0  -2.8 -8.800000000000001 0  -2.4 -8.800000000000001 0  -2 -8.800000000000001 0  -1.6 -8.800000000000001 0  -1.199999999999999 -8.800000000000001 0  -0.8000000000000007 -8.800000000000001 0  -0.4000000000000004 -8.800000000000001 0  0 -8.800000000000001 0  0.4000000000000004 -8.800000000000001 0  0.8000000000000007 -8.800000000000001 0  1.199999999999999 -8.800000000000001 0  1.6 -8.800000000000001 0  2 -8.800000000000001 0  2.4 -8.800000000000001 0  2.800000000000001 -8.800000000000001 0  3.199999999999999 -8.800000000000001 0  3.6 -8.800000000000001 0  4 -8.800000000000001 0  4.4 -8.800000000000001 0  4.800000000000001 -8.800000000000001 0  5.199999999999999 -8.800000000000001 0  5.6 -8.800000000000001 0  6 -8.800000000000001 0  6.399999999999999 -8.800000000000001 0  6.800000000000001 -8.800000000000001 0  7.199999999999999 -8.800000000000001 0  7.600000000000001 -8.800000000000001 0  8 -8.800000000000001 0  8.399999999999999 -8.800000000000001 0  8.800000000000001 -8.800000000000001 0  9.199999999999999 -8.800000000000001 0  9.600000000000001 -8.800000000000001 0  10 -8.800000000000001 0  -10 -8.4 0  -9.6 -8.4 0  -9.199999999999999 -8.4 0  -8.800000000000001 -8.4 0  -8.4 -8.4 0  -8 -8.4 0  -7.6 -8.4 0  -7.2 -8.4 0  -6.8 -8.4 0  -6.4 -8.4 0  -6 -8.4 0  -5.6 -8.4 0  -5.2 -8.4 0  -4.8 -8.4 0  -4.4 -8.4 0  -4 -8.4 0  -3.6 -8.4 0  -3.2 -8.4 0  -2.8 -8.4 0  -2.4 -8.4 0  -2 -8.4 0  -1.6 -8.4 0  -1.199999999999999 -8.4 0  -0.8000000000000007 -8.4 0  -0.4000000000000004 -8.4 0  0 -8.4 0  0.4000000000000004 -8.4 0  0.8000000000000007 -8.4 0  1.199999999999999 -8.4 0  1.6 -8.4 0  2 -8.4 0  2.4 -8.4 0  2.800000000000001 -8.4 0  3.199999999999999 -8.4 0  3.6 -8.4 0  4 -8.4 0  4.4 -8.4 0  4.800000000000001 -8.4 0  5.199999999999999 -8.4 0  5.6 -8.4 0  6 -8.4 0  6.399999999999999 -8.4 0  6.800000000000001 -8.4 0  7.199999999999999 -8.4 0  7.600000000000001 -8.4 0  8 -8.4 0  8.399999999999999 -8.4 0  8.800000000000001 -8.4 0  9.199999999999999 -8.4 0  9.600000000000001 -8.4 0  10 -8.4 0  -10 -8 0  -9.6 -8 0  -9.199999999999999 -8 0  -8.800000000000001 -8 0  -8.4 -8 0  -8 -8 0  -7.6 -8 0  -7.2 -8 0  -6.8 -8 0  -6.4 -8 0  -6 -8 0  -5.6 -8 0  -5.2 -8 0  -4.8 -8 0  -4.4 -8 0  -4 -8 0  -3.6 -8 0  -3.2 -8 0  -2.8 -8 0  -2.4 -8 0  -2 -8 0  -1.6 -8 0  -1.199999999999999 -8 0  -0.8000000000000007 -8 0  -0.4000000000000004 -8 0  0 -8 0  0.4000000000000004 -8 0  0.8000000000000007 -8 0  1.199999999999999 -8 0  1.6 -8 0  2 -8 0  2.4 -8 0  2.800000000000001 -8 0  3.199999999999999 -8 0  3.6 -8 0  4 -8 0  4.4 -8 0  4.800000000000001 -8 0  5.199999999999999 -8 0  5.6 -8 0  6 -8 0  6.399999999999999 -8 0  6.800000000000001 -8 0  7.199999999999999 -8 0  7.600000000000001 -8 0  8 -8 0  8.399999999999999 -8 0  8.800000000000001 -8 0  9.199999999999999 -8 0  9.600000000000001 -8 0  10 -8 0  -10 -7.6 0  -9.6 -7.6 0  -9.199999999999999 -7.6 0  -8.800000000000001 -7.6 0  -8.4 -7.6 0  -8 -7.6 0  -7.6 -7.6 0  -7.2 -7.6 0  -6.8 -7.6 0  -6.4 -7.6 0  -6 -7.6 0  -5.6 -7.6 0  -5.2 -7.6 0  -4.8 -7.6 0  -4.4 -7.6 0  -4 -7.6 0  -3.6 -7.6 0  -3.2 -7.6 0  -2.8 -7.6 0  -2.4 -7.6 0  -2 -7.6 0  -1.6 -7.6 0  -1.199999999999999 -7.6 0  -0.8000000000000007 -7.6 0  -0.4000000000000004 -7.6 0  0 -7.6 0  0.4000000000000004 -7.6 0  0.8000000000000007 -7.6 0  1.199999999999999 -7.6 0  1.6 -7.6 0  2 -7.6 0  2.4 -7.6 0  2.800000000000001 -7.6 0  3.199999999999999 -7.6 0  3.6 -7.6 0  4 -7.6 0  4.4 -7.6 0  4.800000000000001 -7.6 0  5.199999999999999 -7.6 0  5.6 -7.6 0  6 -7.6 0  6.399999999999999 -7.6 0  6.800000000000001 -7.6 0  7.199999999999999 -7.6 0  7.600000000000001 -7.6 0  8 -7.6 0  8.399999999999999 -7.6 0  8.800000000000001 -7.6 0  9.199999999999999 -7.6 0  9.600000000000001 -7.6 0  10 -7.6 0  -10 -7.2 0  -9.6 -7.2 0  -9.199999999999999 -7.2 0  -8.800000000000001 -7.2 0  -8.4 -7.2 0  -8 -7.2 0  -7.6 -7.2 0  -7.2 -7.2 0  -6.8 -7.2 0  -6.4 -7.2 0  -6 -7.2 0  -5.6 -7.2 0  -5.2 -7.2 0  -4.8 -7.2 0  -4.4 -7.2 0  -4 -7.2 0  -3.6 -7.2 0  -3.2 -7.2 0  -2.8 -7.2 0  -2.4 -7.2 0  -2 -7.2 0  -1.6 -7.2 0  -1.199999999999999 -7.2 0  -0.8000000000000007 -7.2 0  -0.4000000000000004 -7.2 0  0 -7.2 0  0.4000000000000004 -7.2 0  0.8000000000000007 -7.2 0  1.199999999999999 -7.2 0  1.6 -7.2 0  2 -7.2 0  2.4 -7.2 0  2.800000000000001 -7.2 0  3.199999999999999 -7.2 0  3.6 -7.2 0  4 -7.2 0  4.4 -7.2 0  4.800000000000001 -7.2 0  5.199999999999999 -7.2 0  5.6 -7.2 0  6 -7.2 0  6.399999999999999 -7.2 0  6.800000000000001 -7.2 0  7.199999999999999 -7.2 0  7.600000000000001 -7.2 0  8 -7.2 0  8.399999999999999 -7.2 0  8.800000000000001 -7.2 0  9.199999999999999 -7.2 0  9.600000000000001 -7.2 0  10 -7.2 0  -10 -6.8 0  -9.6 -6.8 0  -9.199999999999999 -6.8 0  -8.800000000000001 -6.8 0  -8.4 -6.8 0  -8 -6.8 0  -7.6 -6.8 0  -7.2 -6.8 0  -6.8 -6.8 0  -6.4 -6.8 0  -6 -6.8 0  -5.6 -6.8 0  -5.2 -6.8 0  -4.8 -6.8 0  -4.4 -6.8 0  -4 -6.8 0  -3.6 -6.8 0  -3.2 -6.8 0  -2.8 -6.8 0  -2.4 -6.8 0  -2 -6.8 0  -1.6 -6.8 0  -1.199999999999999 -6.8 0  -0.8000000000000007 -6.8 0  -0.4000000000000004 -6.8 0  0 -6.8 0  0.4000000000000004 -6.8 0  0.8000000000000007 -6.8 0  1.199999999999999 -6.8 0  1.6 -6.8 0  2 -6.8 0  2.4 -6.8 0  2.800000000000001 -6.8 0  3.199999999999999 -6.8 0  3.6 -6.8 0  4 -6.8 0  4.4 -6.8 0  4.800000000000001 -6.8 0  5.199999999999999 -6.8 0  5.6 -6.8 0  6 -6.8 0  6.399999999999999 -6.8 0  6.800000000000001 -6.8 0  7.199999999999999 -6.8 0  7.600000000000001 -6.8 0  8 -6.8 0  8.399999999999999 -6.8 0  8.800000000000001 -6.8 0  9.199999999999999 -6.8 0  9.600000000000001 -6.8 0  10 -6.8 0  -10 -6.4 0  -9.6 -6.4 0  -9.199999999999999 -6.4 0  -8.800000000000001 -6.4 0  -8.4 -6.4 0  -8 -6.4 0  -7.6 -6.4 0  -7.2 -6.4 0  -6.8 -6.4 0  -6.4 -6.4 0  -6 -6.4 0  -5.6 -6.4 0  -5.2 -6.4 0  -4.8 -6.4 0  -4.4 -6.4 0  -4 -6.4 0  -3.6 -6.4 0  -3.2 -6.4 0  -2.8 -6.4 0  -2.4 -6.4 0  -2 -6.4 0  -1.6 -6.4 0  -1.199999999999999 -6.4 0  -0.8000000000000007 -6.4 0  -0.4000000000000004 -6.4 0  0 -6.4 0
[...]
<PointData  Scalars="f_302"> 
<DataArray  type="Float64"  Name="f_302"  format="ascii">-9.8384095931395584e-05  6.7116427096262411e-04  -1.1380654471157925e-03  1.4786213273004819e-03  -1.6577577378272068e-03  1.6546446060392642e-03  -1.4671298505704374e-03  1.1123045233190332e-03  -6.2494255487014112e-04  5.4123469582061939e-05  5.4161860913746920e-04  -1.1001431115025128e-03  1.5619723764237158e-03  -1.8763615324281981e-03  2.0065640409731313e-03  -1.9337631724639802e-03  1.6592671531044905e-03  -1.2047333386088735e-03  6.1037834503479508e-04  6.8671852150127636e-05  -7.6755449523440735e-04  1.4178761389244414e-03  -1.9543578198225058e-03  2.3212765361693400e-03  -2.4780739823459337e-03  2.4035781684312333e-03  -2.0984125129845815e-03  1.5853379638806917e-03  -9.0747055790964368e-04  1.2452072844895925e-04  6.9260795562403350e-04  -1.4683625360960245e-03  2.1296149439241742e-03  -2.6125987828815827e-03  2.8690478760362583e-03  -2.8709463212778642e-03  2.6134268986576122e-03  -2.1155267788878552e-03  1.4187102172666718e-03  -5.8327848472849129e-04  -3.1701238607337345e-04  1.2016344218251033e-03  -1.9906540637615383e-03  2.6120972815078963e-03  -3.0086252116116085e-03  3.1428930500025098e-03  -3.0010828237241973e-03  2.5942457938290479e-03  -1.9570471007505706e-03  1.1409578869554650e-03  -1.6692152990095734e-04  6.7520973179265942e-04  -3.3030103543748145e-03  5.5741831399674221e-03  -7.2408407063103124e-03  8.1187125616380799e-03  -8.1047134628914955e-03  7.1881394979960789e-03  -5.4525331576322509e-03  3.0679736543554785e-03  -2.7455099999516207e-04  -2.6413629057784826e-03  5.3757215836937487e-03  -7.6374732467141002e-03  9.1782562691319920e-03  -9.8181621112068771e-03  9.4649743611795421e-03  -8.1249159405164841e-03  5.9037561624783628e-03  -2.9980664242582511e-03  -3.2262291122982630e-04  3.7411149644723737e-03  -6.9228961890634164e-03  9.5486365530200370e-03  -1.1345696560901033e-02  1.2115564346497958e-02  -1.1754511334707618e-02  1.0265385329433002e-02  -7.7592960102393074e-03  4.4469104278520152e-03  -6.2007324090494363e-04  -3.3745976041238616e-03  7.1677044996291085e-03  -1.0401660981407709e-02  1.2764612991761910e-02  -1.4020459583771802e-02  1.4032086293962609e-02  -1.2775546068295781e-02  1.0343763863126104e-02  -6.9393227637020959e-03  2.8569190202293836e-03  1.5429469985514474e-03  -5.8666404629093734e-03  9.7234055673773613e-03  -1.2761374776216017e-02  1.4700208791037141e-02  -1.5357301354767199e-02  1.4665068606089109e-02  -1.2677653253201637e-02  9.5663230078567116e-03  -5.6039905210715285e-03  1.1433422946008423e-03  -1.1853361494183260e-03  5.7710528220595537e-03  -9.7365323315795650e-03  1.2650958897761116e-02  -1.4192331525027546e-02  1.4180356103918199e-02  -1.2595598370241890e-02  9.5825987417272624e-03  -5.4364694844311031e-03  5.7421076515041191e-04  4.5064819819588559e-03  -9.2768935025216055e-03  1.3230561335634022e-02  -1.5934876729974647e-02  1.7075876979905848e-02  -1.6491728667198495e-02  1.4191481845110673e-02  -1.0357096789047147e-02  5.3283704575547517e-03  4.2793789191448024e-04  -6.3619258350135948e-03  1.1893166417966906e-02  -1.6467086040875219e-02  1.9609649461480919e-02  -2.0975013663011823e-02  2.0381444159591658e-02  -1.7831878939713313e-02  1.3516974167531507e-02  -7.8001343905316108e-03  1.1857589547453579e-03  5.7264402642794084e-03  -1.2296833522252320e-02  1.7905797002775010e-02  -2.2012504873944204e-02  2.4206988763849843e-02  -2.4250458853852831e-02  2.2099956824677788e-02  -1.7914867782056833e-02  1.2044519056629005e-02  -4.9978777645130236e-03  -2.6019431640530773e-03  1.0074210757286664e-02  -1.6742906278188786e-02  2.1999069937267517e-02  -2.5357328244451745e-02  2.6501296074108647e-02  -2.5313568199610850e-02  2.1887449477956386e-02  -1.6519304830983655e-02  9.6823586438422923e-03  -1.9849086072597187e-03  1.6331887227454018e-03  -7.9500294016524066e-03  1.3415819489746258e-02  -1.7440810935645736e-02  1.9583115509183360e-02  -1.9594484907268846e-02  1.7446701803223733e-02  -1.3335933180829753e-02  7.6645095990085345e-03  -1.0018303196212247e-03  -5.9718285147375956e-03  1.2533116095076107e-02  -1.7988358008771098e-02  2.1744069057956127e-02  -2.3368217980042086e-02  2.2636099077187468e-02  -1.9556136832885422e-02  1.4372885859267454e-02  -7.5467037147649947e-03  -2.8814620045090021e-04  8.3830814273521785e-03  -1.5946837391019146e-02  2.2222292085480013e-02  -2.6561050946076283e-02  2.8488515487248532e-02  -2.7753015958260588e-02  2.4354071910377081e-02  -1.8546815476157556e-02  1.0821883251792749e-02  -1.8624369922510529e-03  -7.5178151113691211e-03  1.6449869203220363e-02  -2.4090901706051351e-02  2.9704269554992693e-02  -3.2730411607612780e-02  3.2841834127909704e-02  -2.9976824241441213e-02  2.4348515239828988e-02  -1.6428240161171663e-02  6.9045366938888398e-03  3.3785232978985071e-03  -1.3498032600285152e-02  2.2536880206132818e-02  -2.9668436110749742e-02  3.4233367366900462e-02  -3.5801368954379124e-02  3.4211982786037452e-02  -2.9590624518854317e-02  2.2338260813839345e-02  -1.3095651391672045e-02  2.6853483224764511e-03  -1.9982102565032855e-03  9.7274279398196495e-03  -1.6422071646846122e-02  2.1365327412624091e-02  -2.4019264797634259e-02  2.4080404947613005e-02  -2.1511840137957049e-02  1.6548676042495929e-02  -9.6761640703708282e-03  1.5825782670518423e-03  6.9086084747403296e-03  -1.4920631902195449e-02  2.1611390077850928e-02  -2.6258767819408519e-02  2.8334865710458332e-02  -2.7561706419425635e-02  2.3942761513298633e-02  -1.7766974430960231e-02  9.5846252213655104e-03  -1.5713191309215784e-04  -9.6145547742599712e-03  1.8776181806669429e-02  -2.6412788126601802e-02  3.1738714061209997e-02  -3.4176252044881339e-02  3.3415190279530466e-02  -2.9447282301914558e-02  2.2572045002264486e-02  -1.3373020276145646e-02  2.6664701474454293e-03  8.5728602167406825e-03  -1.9302039559638651e-02  2.8507841924311370e-02  -3.5302973120056279e-02  3.9011459759616889e-02  -3.9234991541381103e-02  3.5893759391989452e-02  -2.9237709337885703e-02  1.9826910672369392e-02  -8.4826542409336403e-03  -3.7863246381424397e-03  1.5875728769869001e-02  -2.6687172624077684e-02  3.5229786035960380e-02  -4.0712432060907758e-02  4.2617866826762982e-02  -4.0751834787635520e-02  3.5262424313101344e-02  -2.6627784323544214e-02  1.5613250713576584e-02  -3.2017466518951920e-03  2.2607913944734481e-03  -1.1006719991595231e-02  1.8592204692526749e-02  -2.4212782159049973e-02  2.7263669493000318e-02  -2.7401854708988746e-02  2.4582112696838711e-02  -1.9063311592113715e-02  1.1384289182986031e-02  -2.3115717411560867e-03  -7.2360122810546795e-03  1.6278476908422639e-02  -2.3872652155271096e-02  2.9207342307720312e-02  -3.1686250769696923e-02  3.0990400642393820e-02  -2.7113740612413145e-02  2.0368211472887230e-02  -1.1357510753860784e-02  9.2184526789994552e-04  9.9411919205518347e-03  -2.0172119769896156e-02  2.8752292565876223e-02  -3.4803925512680259e-02  3.7677683505867275e-02  -3.7019220962158060e-02  3.2808026726322062e-02  -2.5364548082150773e-02  1.5324592621667374e-02  -3.5831471246072595e-03  -8.7872927632030393e-03  2.0636304128103942e-02  -3.0843678848658091e-02  3.8425887102785092e-02  -4.2630709214631066e-02  4.3010939044807531e-02  -3.9469992389219354e-02  3.2274877654215231e-02  -2.2035056037647792e-02  9.6489437593740412e-03  3.7771169380992555e-03  -1.7029961459781737e-02  2.8901390717004587e-02  -3.8300200770570149e-02  4.4353944557376478e-02  -4.6490842470140764e-02  4.4494093366180903e-02  -3.8523408467589115e-02  2.9101654070078500e-02  -1.7067753499160333e-02  3.5001579503725544e-03  -2.4054133990967981e-03  1.1712206676301832e-02  -1.9797805751590656e-02  2.5814894076596016e-02  -2.9125037096240994e-02  2.9363719642091293e-02  -2.6478218648771486e-02  2.0734500316284817e-02  -1.2692369219351898e-02  3.1512141533664773e-03  6.9284093640842263e-03  -1.6519729427732197e-02  2.4631958191804880e-02  -3.0409708807220333e-02  3.3219821063071905e-02  -3.2716971484234705e-02  2.8881472817727068e-02  -2.2025348334639806e-02  1.2765840229412045e-02  -1.9686818357414091e-03  -9.3335766974585489e-03  2.0040437772800380e-02  -2.9090046073470082e-02  3.5563209103744102e-02  -3.8774735426470766e-02  3.8343132439206874e-02  -3.4231732080312521e-02  2.6757019593390902e-02  -1.6563069783313445e-02  4.5642479159459827e-03  8.1386036655773583e-03  -2.0360692156186844e-02  3.0944866847509640e-02  -3.8871698119773146e-02  4.3357538436834861e-02  -4.3931140457890386e-02  4.0481392241489167e-02  -3.3271433816183416e-02  2.2917587657942468e-02  -1.0334867416499180e-02  -3.3459924159761874e-03  1.6882321561660942e-02  -2.9034444917045293e-02  3.8680996152695879e-02  -4.4923772684499652e-02  4.7172239339202761e-02  -4.5199675261256698e-02  3.9165607276270012e-02  -2.9602332843056037e-02  1.7366708789553917e-02  -3.5616526056622406e-03  2.4217488613151876e-03  -1.1793479865450308e-02  1.9952520497697811e-02  -2.6056485152764004e-02  2.9468843730370755e-02  -2.9823139193604877e-02  2.7060560536877908e-02  -2.1437116559560310e-02  1.3499628406695548e-02  -4.0328109956267733e-03  -6.0174505496736657e-03  1.5637178963223600e-02  -2.3844662880272125e-02  2.9788275794248392e-02  -3.2832146255443742e-02  3.2621214848925065e-02  -2.9119186059644687e-02  2.2615493983581998e-02  -1.3700398884194604e-02  3.2104275835470636e-03  7.8507347582323708e-03  -1.8408381719482975e-02  2.7420736693494027e-02  -3.3980691764581780e-02  3.7405462044121610e-02  -3.7305391235009734e-02  3.3625103127561271e-02  -2.6652818376945116e-02  1.6996695892828841e-02  -5.5302228882236843e-03  -6.6883367458092750e-03  1.8514906983993672e-02  -2.8827639413388534e-02  3.6633767767409918e-02  -4.1165072218669232e-02  4.1952780050635470e-02  -3.8874642119184746e-02  3.2169538528033774e-02  -2.2418034830700800e-02  1.0490540356790990e-02  2.5321947568958734e-03  -1.5458862148789701e-02  2.7098323750109999e-02  -3.6370881443798506e-02  4.2409596749348175e-02  -4.4642078371449054e-02  4.2844975151812202e-02  -3.7165971069469853e-02  2.8111135753671222e-02  -1.6498749513781448e-02  3.3838880594135312e-03  -2.3054583002333332e-03  1.1229230099056286e-02  -1.9018536876281238e-02  2.4884150396929140e-02  -2.8227520913768900e-02  2.8700416525300008e-02  -2.6240030945784289e-02  2.1076085571319181e-02  -1.3709178044480349e-02  4.8624311112542883e-03  4.5888987043729004e-03  -1.3703035805814223e-02  2.1564207502483591e-02  -2.7373062068011628e-02  3.0526149496231014e-02  -3.0676666711464344e-02  2.7770463050716898e-02  -2.2053682845323313e-02  1.4051160980960009e-02  -4.5175205212740184e-03  -5.6344247057772854e-03  1.5421142088148321e-02  -2.3883340066283572e-02  3.0179267387990517e-02  -3.3667321642937710e-02  3.3969926654185301e-02  -3.1012406520867061e-02  2.5032963076665603e-02  -1.6562626085041204e-02  6.3769272677702410e-03  4.5762263761267375e-03  -1.5265699642525426e-02  2.4674853415393182e-02  -3.1898543494640878e-02  3.6230119927989288e-02  -3.7230069289092664e-02  3.4769661468772875e-02  -2.9045321832938238e-02  2.0562225174366636e-02  -1.0088535369585516e-02  -1.4154852071233484e-03  1.2886867428387955e-02  -2.3259419614498268e-02  3.1563912398580501e-02  -3.7019481075069589e-02  3.9107572842872682e-02  -3.7621403059085172e-02  3.2686192844384933e-02  -2.4748221247727381e-02  1.4533676823746875e-02  -2.9811555432918278e-03  2.0587817619637390e-03  -1.0030136785930125e-02  1.7011633210982553e-02  -2.2313243047253035e-02  2.5409066693178915e-02  -2.5988858000081747e-02  2.3988609260593291e-02  -1.9597210369993911e-02  1.3238511059689238e-02  -5.5304960088389168e-03  -2.7744999957997683e-03  1.0862769811886847e-02  -1.7938353046600200e-02  2.3300640070551448e-02  -2.6412938361146575e-02  2.6955338950504271e-02  -2.4856725579440513e-02  2.0302774070002309e-02  -1.3719101864759973e-02  5.7311251938854686e-03  2.8955669516498505e-03  -1.1328624039974606e-02  1.8749088943531007e-02  -2.4430587193985925e-02  2.7809914121177490e-02  -2.8542191570187982e-02  2.6535232633891199e-02  -2.1959738387975030e-02  1.5234264903264105e-02  -6.9863201655661917e-03  -2.0067534912955195e-03  1.0891505914580797e-02  -1.8819692923806433e-02  2.5029410084756478e-02  -2.8918276756646818e-02  3.0101642967421387e-02  -2.8450208555924728e-02  2.4103400877099102e-02  -1.7457167564579330e-02  9.1272836042267814e-03  1.0838624526265619e-04  -9.3832122492563137e-03  1.7823756362145667e-02  -2.4632570077504214e-02  2.9163950431139229e-02  -3.0985431468318819e-02  2.9919139023919582e-02  -2.6059049006741268e-02  1.9762481341615012e-02  -1.1616614652407495e-02  2.3831865808240310e-03  -1.6908745720257475e-03  8.2405259625308019e-03  -1.4004216129877014e-02  1.8432385564773512e-02  -2.1103121949644484e-02  2.1762463137060439e-02  -2.0348626070623252e-02  1.6997844892119793e-02  -1.2031263380397854e-02  5.9241416050302264e-03  7.3966957629832241e-04  -7.3236223276790004e-03  1.3199378254390963e-02  -1.7806893477714920e-02  2.0707929266824080e-02  -2.1627867351974337e-02  2.0481831779603537e-02  -1.7382624726871014e-02  1.2629727562606951e-02  -6.6804333954154811e-03  1.0588928605852981e-04  6.4637288260258078e-03  -1.2399646138444293e-02  1.7134727398676029e-02  -2.0217749051953077e-02  2.1356506182141331e-02  -2.0445629371681016e-02  1.7576455790175270e-02  -1.3028022038915980e-02  7.2400580446075231e-03  -7.7058779358752511e-04  -5.7577817862783159e-03  1.1717719384682143e-02  -1.6537424048021148e-02  1.9755490335740259e-02  -2.1065119104252246e-02  2.0343435321066153e-02  -1.7663107014584584e-02  1.3285160970954649e-02  -7.6336976677588682e-03  1.2549465082558045e-03  5.2353940724974863e-03  -1.1211463131848483e-02  1.6097485212002289e-02  -1.9423166369328160e-02  2.0868913251082290e-02  -2.0296530222388243e-02  1.7762446942190910e-02  -1.3512209210292843e-02  7.9567679102124818e-03  -1.6328511729310270e-03  1.2178234228308520e-03  -5.9384762901425305e-03  1.0125776734124726e-02  -1.3404703455886785e-02  1.5483506109772154e-02  -1.6180292613780466e-02  1.5439401157756596e-02  -1.3336052272215087e-02  1.0068876811644523e-02  -5.9410524637140512e-03  1.3318467970122921e-03  3.3387414684078161e-03  -7.6489136036763756e-03  1.1213922906018581e-02  -1.3721219236469691e-02  1.4958622781571715e-02  -1.4832935369414607e-02  1.3377311042917277e-02  -1.0746775441134502e-02  7.2024039687540601e-03  -3.0857353174911372e-03  -1.2140914107568921e-03  5.2973168266237007e-03  -8.7911321450421069e-03  1.1384284015859149e-02  -1.2855464521482028e-02  1.3092852937119266e-02  -1.2103038349370134e-02  1.0008578213249502e-02  -7.0345386003085987e-03  3.4854124626391989e-03  2.8527760722812131e-04  -3.9097024882342995e-03  7.0413940906054020e-03  -9.3884117068780346e-03  1.0740829330757304e-02  -1.0989938645715729e-02  1.0137382868089091e-02  -8.2934249120462725e-03  5.6646130561791158e-03  -2.5321358383205055e-03  -7.7694423844706462e-04  3.9227077252847117e-03  -6.5863769525813303e-03  8.5019487416015151e-03  -9.4823612231112794e-03  9.4376442047838845e-03  -8.3832990338790752e-03  6.4381195704542125e-03  -3.8117062340344721e-03  7.8293857627405566e-04  -6.6228666354773184e-04  3.2340962849893083e-03  -5.5602656579818738e-03  7.4650632427348488e-03  -8.8062823499373329e-03  9.4863883697285656e-03  -9.4599589046606546e-03  8.7368209241441130e-03  -7.3806590371152253e-03  5.5032559734555881e-03  -3.2548963018279044e-03  8.1178460318079542e-04  1.6384277915822741e-03  -3.9117685810070961e-03  5.8424487165746912e-03  -7.2955471689633020e-03  8.1768575298503156e-03  -8.4391424876840877e-03  8.0843675121004283e-03  -7.1618410225613091e-03  5.7625424286553463e-03  -4.0102402950120174e-03  2.0502622862910388e-03  -3.6954769108105957e-05  -1.8790510528964531e-03  3.5626723830886036e-03  -4.9043333637341551e-03  5.8272782408474800e-03  -6.2917345841774757e-03  6.2957243117791164e-03  -5.8726298329940425e-03  5.0859105136869436e-03  -4.0216046741771523e-03  2.7794234185951777e-03  -1.4633310609977362e-03  1.7250692666520445e-04  1.0065019156914998e-03  -2.0057868023694988e-03  2.7798077717456769e-03  -3.3066616997116621e-03  3.5869576973858262e-03  -3.6406064907717507e-03  3.5020261079884147e-03  -3.2144016465776703e-03  2.8237001497342720e-03  -2.3731283804953604e-03  1.8986349983372596e-03  -1.4259103770848606e-03  9.6914413166753377e-04  -5.3158410375827225e-04  1.0772466036647414e-04  5.2720528562074632e-05  -2.6578336885109877e-04  5.4003552362381251e-04  -9.1278548347327904e-04  1.4026294594672141e-03  -2.0043180080260106e-03  2.6866878627657088e-03  -3.3940158045053658e-03  4.0507653754877030e-03  -4.5693078489528879e-03  4.8598473633193464e-03  -4.8415043399698812e-03  4.4533416303358594e-03  -3.6640741727466384e-03  2.4792925078976342e-03  -9.4524695529301663e-04  -8.5143679304990050e-04  2.7883392204551601e-03  -4.7159157813140267e-03  6.4696106891095461e-03  -7.8843909480124340e-03  8.8103833166731302e-03  -9.1281259096814855e-03  8.7619172900300947e-03  -7.6898659023454602e-03  5.9495039248311102e-03  -3.6382104409500050e-03  9.0815541979764121e-04  2.0440144580132456e-03  -4.9920224860501763e-03  7.6981642338384152e-03  -9.9333350218287139e-03  1.1497132090513163e-02  -1.2236218384151031e-02  1.2059239114969188e-02  -1.0946847223565322e-02  8.9557980849474701e-03  -6.2165826651920152e-03  2.9246365327841107e-03  6.7426150474790190e-04  -4.3032557809861123e-03  7.6767623638132783e-03  -1.0524015096570345e-02  1.2611787263214613e-02  -1.3764309304819219e-02  1.3878622920223748e-02  -1.2933991256974137e-02  1.0994491027651973e-02  -8.2045005846909137e-03  4.7774159939612216e-03  -9.7851949945517987e-04  5.7782064120289627e-04  -2.8055964272599965e-03  4.6637819078183592e-03  -5.9004073001180466e-03  6.3338701843898707e-03  -5.8742395531472180e-03  4.5348632396778193e-03  -2.4329814663188133e-03  -2.2082901048643081e-04  3.1434098933432902e-03  -6.0079499605103252e-03  8.4782029393717182e-03  -1.0244534969221356e-02  1.1058109469093526e-02  -1.0759653431603023e-02  9.2997435528168696e-03  -6.7483573609907468e-03  3.2924766240971580e-03  7.7829296495206767e-04  -5.0969252423229122e-03  9.2527409038960333e-03  -1.2830587739545232e-02  1.5451687966042434e-02  -1.6812170644504344e-02  1.6715456896242466e-02  -1.5095191437408303e-02  1.2026269278999881e-02  -7.7226124579066512e-03  2.5216043931708810e-03  3.1436300623254409e-03  -8.7817255333375172e-03  1.3887009493309319e-02  -1.7985850334506413e-02  2.0681106482495600e-02  -2.1690472707776326e-02  2.0875029227375309e-02  -1.8255164039799869e-02  1.4012180879128231e-02  -8.4752189178542731e-03  2.0944734387643984e-03  4.5970086695637600e-03  -1.1029600164057430e-02  1.6647291710199338e-02  -2.0957274903942145e-02  2.3574384222744434e-02  -2.4256308503651732e-02  2.2926300626647980e-02  -1.9681239460869165e-02  1.4784227368812556e-02  -8.6423169041605751e-03  1.7713208629743275e-03  -1.1932893332312808e-03  5.8045089899056018e-03  -9.7543210461775217e-03  1.2587078087906054e-02  -1.3965481228584532e-02  1.3706981356182252e-02  -1.1804394200927515e-02  8.4285601452369890e-03  -3.9126721918732177e-03  -1.2802683906873251e-03  6.6037104221462481e-03  -1.1482973370585214e-02  1.5374328559380935e-02  -1.7821828975220760e-02  1.8506147430048230e-02  -1.7280423136360919e-02  1.4189356203386296e-02  -9.4694095935593282e-03  3.5298225337270098e-03  3.0839707653062057e-03  -9.7411722241508934e-03  1.5785915860988757e-02  -2.0601256855831716e-02  2.3670648294709835e-02  -2.4630865956671126e-02  2.3311095512581974e-02  -1.9754170510740177e-02  1.4217624550443493e-02  -7.1541386678242698e-03  -8.2705757169624738e-04  9.0144253675538931e-03  -1.6659051438046579e-02  2.3044252921820219e-02  -2.7553312136175047e-02  2.9728905102841673e-02  -2.9318505568059962e-02  2.6301313802205260e-02  -2.0893959898751042e-02  1.3534205873053436e-02  -4.8439339799234227e-03  -4.4253347663753984e-03  1.3459483590834239e-02  -2.1455283326674582e-02  2.7693550192088252e-02  -3.1605198964750891e-02  3.2824035153033788e-02  -3.1221331915248472e-02  2.6918908266673477e-0