<?xml version="1.0"?>
<VTKFile type="UnstructuredGrid"  version="0.1"  >
<UnstructuredGrid>
<Piece  NumberOfPoints="2601" NumberOfCells="5000">
<Points>
<DataArray  type="Float64"  NumberOfComponents="3"  format="ascii">-10 -10 0  -9.6 -10 0  -9.199999999999999 -10 0  -8.800000000000001 -10 0  -8.4 -10 0  -8 -10 0  -7.6 -10 0  -7.2 -10 0  -6.8 -10 0  -6.4 -10 0  -6 -10 0  -5.6 -10 0  -5.2 -10 0  -4.8 -10 0  -4.4 -10 0  -4 -10 0  -3.6 -10 0  -3.2 -10 0  -2.8 -10 0  -2.4 -10 0  -2 -10 0  -1.6 -10 0  -1.199999999999999 -10 0  -0.8000000000000007 -10 0  -0.4000000000000004 -10 0  0 -10 0  0.4000000000000004 -10 0  0.8000000000000007 -10 0  1.199999999999999 -10 0  1.6 -10 0  2 -10 0  2.4 -10 0  2.800000000000001 -10 0  3.199999999999999 -10 0  3.6 -10 0  4 -10 0  4.4 -10 0  4.800000000000001 -10 0  5.199999999999999 -10 0  5.6 -10 0  6 -10 0  6.399999999999999 -10 0  6.800000000000001 -10 0  7.199999999999999 -10 0  7.600000000000001 -10 0  8 -10 0  8.399999999999999 -10 0  8.800000000000001 -10 0  9.199999999999999 -10 0  9.600000000000001 -10 0  10 -10 0  -10 -9.6 0  -9.6 -9.6 0  -9.199999999999999 -9.6 0  -8.800000000000001 -9.6 0  -8.4 -9.6 0  -8 -9.6 0  -7.6 -9.6 0  -7.2 -9.6 0  -6.8 -9.6 0  -6.4 -9.6 0  -6 -9.6 0  -5.6 -9.6 0  -5.2 -9.6 0  -4.8 -9.6 0  -4.4 -9.6 0  -4 -9.6 0  -3.6 -9.6 0  -3.2 -9.6 0  -2.8 -9.6 0  -2.4 -9.6 0  -2 -9.6 0  -1.6 -9.6 0  -1.199999999999999 -9.6 0  -0.8000000000000007 -9.6 0  -0.4000000000000004 -9.6 0  0 -9.6 0  0.4000000000000004 -9.6 0  0.8000000000000007 -9.6 0  1.199999999999999 -9.6 0  1.6 -9.6 0  2 -9.6 0  2.4 -9.6 0  2.800000000000001 -9.6 0  3.199999999999999 -9.6 0  3.6 -9.6 0  4 -9.6 0  4.4 -9.6 0  4.800000000000001 -9.6 0  5.199999999999999 -9.6 0  5.6 -9.6 0  6 -9.6 0  6.399999999999999 -9.6 0  6.800000000000001 -9.6 0  7.199999999999999 -9.6 0  7.600000000000001 -9.6 0  8 -9.6 0  8.399999999999999 -9.6 0  8.800000000000001 -9.6 0  9.199999999999999 -9.6 0  9.600000000000001 -9.6 0  10 -9.6 0  -10 -9.199999999999999 0  -9.6 -9.199999999999999 0  -9.199999999999999 -9.199999999999999 0  -8.800000000000001 -9.199999999999999 0  -8.4 -9.199999999999999 0  -8 -9.199999999999999 0  -7.6 -9.199999999999999 0  -7.2 -9.199999999999999 0  -6.8 -9.199999999999999 0  -6.4 -9.199999999999999 0  -6 -9.199999999999999 0  -5.6 -9.199999999999999 0  -5.2 -9.199999999999999 0  -4.8 -9.199999999999999 0  -4.4 -9.199999999999999 0  -4 -9.199999999999999 0  -3.6 -9.199999999999999 0  -3.2 -9.199999999999999 0  -2.8 -9.199999999999999 0  -2.4 -9.199999999999999 0  -2 -9.199999999999999 0  -1.6 -9.199999999999999 0  -1.199999999999999 -9.199999999999999 0  -0.8000000000000007 -9.199999999999999 0  -0.4000000000000004 -9.199999999999999 0  0 -9.199999999999999 0  0.4000000000000004 -9.199999999999999 0  0.8000000000000007 -9.199999999999999 0  1.199999999999999 -9.199999999999999 0  1.6 -9.199999999999999 0  2 -9.199999999999999 0  2.4 -9.199999999999999 0  2.800000000000001 -9.199999999999999 0  3.199999999999999 -9.199999999999999 0  3.6 -9.199999999999999 0  4 -9.199999999999999 0  4.4 -9.199999999999999 0  4.800000000000001 -9.199999999999999 0  5.199999999999999 -9.199999999999999 0  5.6 -9.199999999999999 0  6 -9.199999999999999 0  6.399999999999999 -9.199999999999999 0  6.800000000000001 -9.199999999999999 0  7.199999999999999 -9.199999999999999 0  7.600000000000001 -9.199999999999999 0  8 -9.199999999999999 0  8.399999999999999 -9.199999999999999 0  8.800000000000001 -9.199999999999999 0  9.199999999999999 -9.199999999999999 0  9.600000000000001 -9.199999999999999 0  10 -9.199999999999999 0  -10 -8.800000000000001 0  -9.6 -8.800000000000001 0  -9.199999999999999 -8.800000000000001 0  -8.800000000000001 -8.800000000000001 0  -8.4 -8.800000000000001 0  -8 -8.800000000000001 0  -7.6 -8.800000000000001 0  -7.2 -8.800000000000001 0  -6.8 -8.800000000000001 0  -6.4 -8.800000000000001 0  -6 -8.800000000000001 0  -5.6 -8.800000000000001 0  -5.2 -8.800000000000001 0  -4.8 -8.800000000000001 0  -4.4 -8.800000000000001 0  -4 -8.800000000000001 0  -3.6 -8.800000000000001 0  -3.2 -8.800000000000001 0  -2.8 -8.800000000000001 0  -2.4 -8.800000000000001 0  -2 -8.800000000000001 0  -1.6 -8.800000000000001 0  -1.199999999999999 -8.800000000000001 0  -0.8000000000000007 -8.800000000000001 0  -0.4000000000000004 -8.800000000000001 0  0 -8.800000000000001 0  0.4000000000000004 -8.800000000000001 0  0.8000000000000007 -8.800000000000001 0  1.199999999999999 -8.800000000000001 0  1.6 -8.800000000000001 0  2 -8.800000000000001 0  2.4 -8.800000000000001 0  2.800000000000001 -8.800000000000001 0  3.199999999999999 -8.800000000000001 0  3.6 -8.800000000000001 0  4 -8.800000000000001 0  4.4 -8.800000000000001 0  4.800000000000001 -8.800000000000001 0  5.199999999999999 -8.800000000000001 0  5.6 -8.800000000000001 0  6 -8.800000000000001 0  6.399999999999999 -8.800000000000001 0  6.800000000000001 -8.800000000000001 0  7.199999999999999 -8.800000000000001 0  7.600000000000001 -8.800000000000001 0  8 -8.800000000000001 0  8.399999999999999 -8.800000000000001 0  8.800000000000001 -8.800000000000001 0  9.199999999999999 -8.800000000000001 0  9.600000000000001 -8.800000000000001 0  10 -8.800000000000001 0  -10 -8.4 0  -9.6 -8.4 0  -9.199999999999999 -8.4 0  -8.800000000000001 -8.4 0  -8.4 -8.4 0  -8 -8.4 0  -7.6 -8.4 0  -7.2 -8.4 0  -6.8 -8.4 0  -6.4 -8.4 0  -6 -8.4 0  -5.6 -8.4 0  -5.2 -8.4 0  -4.8 -8.4 0  -4.4 -8.4 0  -4 -8.4 0  -3.6 -8.4 0  -3.2 -8.4 0  -2.8 -8.4 0  -2.4 -8.4 0  -2 -8.4 0  -1.6 -8.4 0  -1.199999999999999 -8.4 0  -0.8000000000000007 -8.4 0  -0.4000000000000004 -8.4 0  0 -8.4 0  0.4000000000000004 -8.4 0  0.8000000000000007 -8.4 0  1.199999999999999 -8.4 0  1.6 -8.4 0  2 -8.4 0  2.4 -8.4 0  2.800000000000001 -8.4 0  3.199999999999999 -8.4 0  3.6 -8.4 0  4 -8.4 0  4.4 -8.4 0  4.800000000000001 -8.4 0  5.199999999999999 -8.4 0  5.6 -8.4 0  6 -8.4 0  6.399999999999999 -8.4 0  6.800000000000001 -8.4 0  7.199999999999999 -8.4 0  7.600000000000001 -8.4 0  8 -8.4 0  8.399999999999999 -8.4 0  8.800000000000001 -8.4 0  9.199999999999999 -8.4 0  9.600000000000001 -8.4 0  10 -8.4 0  -10 -8 0  -9.6 -8 0  -9.199999999999999 -8 0  -8.800000000000001 -8 0  -8.4 -8 0  -8 -8 0  -7.6 -8 0  -7.2 -8 0  -6.8 -8 0  -6.4 -8 0  -6 -8 0  -5.6 -8 0  -5.2 -8 0  -4.8 -8 0  -4.4 -8 0  -4 -8 0  -3.6 -8 0  -3.2 -8 0  -2.8 -8 0  -2.4 -8 0  -2 -8 0  -1.6 -8 0  -1.199999999999999 -8 0  -0.8000000000000007 -8 0  -0.4000000000000004 -8 0  0 -8 0  0.4000000000000004 -8 0  0.8000000000000007 -8 0  1.199999999999999 -8 0  1.6 -8 0  2 -8 0  2.4 -8 0  2.800000000000001 -8 0  3.199999999999999 -8 0  3.6 -8 0  4 -8 0  4.4 -8 0  4.800000000000001 -8 0  5.199999999999999 -8 0  5.6 -8 0  6 -8 0  6.399999999999999 -8 0  6.800000000000001 -8 0  7.199999999999999 -8 0  7.600000000000001 -8 0  8 -8 0  8.399999999999999 -8 0  8.800000000000001 -8 0  9.199999999999999 -8 0  9.600000000000001 -8 0  10 -8 0  -10 -7.6 0  -9.6 -7.6 0  -9.199999999999999 -7.6 0  -8.800000000000001 -7.6 0  -8.4 -7.6 0  -8 -7.6 0  -7.6 -7.6 0  -7.2 -7.6 0  -6.8 -7.6 0  -6.4 -7.6 0  -6 -7.6 0  -5.6 -7.6 0  -5.2 -7.6 0  -4.8 -7.6 0  -4.4 -7.6 0  -4 -7.6 0  -3.6 -7.6 0  -3.2 -7.6 0  -2.8 -7.6 0  -2.4 -7.6 0  -2 -7.6 0  -1.6 -7.6 0  -1.199999999999999 -7.6 0  -0.8000000000000007 -7.6 0  -0.4000000000000004 -7.6 0  0 -7.6 0  0.4000000000000004 -7.6 0  0.8000000000000007 -7.6 0  1.199999999999999 -7.6 0  1.6 -7.6 0  2 -7.6 0  2.4 -7.6 0  2.800000000000001 -7.6 0  3.199999999999999 -7.6 0  3.6 -7.6 0  4 -7.6 0  4.4 -7.6 0  4.800000000000001 -7.6 0  5.199999999999999 -7.6 0  5.6 -7.6 0  6 -7.6 0  6.399999999999999 -7.6 0  6.800000000000001 -7.6 0  7.199999999999999 -7.6 0  7.600000000000001 -7.6 0  8 -7.6 0  8.399999999999999 -7.6 0  8.800000000000001 -7.6 0  9.199999999999999 -7.6 0  9.600000000000001 -7.6 0  10 -7.6 0  -10 -7.2 0  -9.6 -7.2 0  -9.199999999999999 -7.2 0  -8.800000000000001 -7.2 0  -8.4 -7.2 0  -8 -7.2 0  -7.6 -7.2 0  -7.2 -7.2 0  -6.8 -7.2 0  -6.4 -7.2 0  -6 -7.2 0  -5.6 -7.2 0  -5.2 -7.2 0  -4.8 -7.2 0  -4.4 -7.2 0  -4 -7.2 0  -3.6 -7.2 0  -3.2 -7.2 0  -2.8 -7.2 0  -2.4 -7.2 0  -2 -7.2 0  -1.6 -7.2 0  -1.199999999999999 -7.2 0  -0.8000000000000007 -7.2 0  -0.4000000000000004 -7.2 0  0 -7.2 0  0.4000000000000004 -7.2 0  0.8000000000000007 -7.2 0  1.199999999999999 -7.2 0  1.6 -7.2 0  2 -7.2 0  2.4 -7.2 0  2.800000000000001 -7.2 0  3.199999999999999 -7.2 0  3.6 -7.2 0  4 -7.2 0  4.4 -7.2 0  4.800000000000001 -7.2 0  5.199999999999999 -7.2 0  5.6 -7.2 0  6 -7.2 0  6.399999999999999 -7.2 0  6.800000000000001 -7.2 0  7.199999999999999 -7.2 0  7.600000000000001 -7.2 0  8 -7.2 0  8.399999999999999 -7.2 0  8.800000000000001 -7.2 0  9.199999999999999 -7.2 0  9.600000000000001 -7.2 0  10 -7.2 0  -10 -6.8 0  -9.6 -6.8 0  -9.199999999999999 -6.8 0  -8.800000000000001 -6.8 0  -8.4 -6.8 0  -8 -6.8 0  -7.6 -6.8 0  -7.2 -6.8 0  -6.8 -6.8 0  -6.4 -6.8 0  -6 -6.8 0  -5.6 -6.8 0  -5.2 -6.8 0  -4.8 -6.8 0  -4.4 -6.8 0  -4 -6.8 0  -3.6 -6.8 0  -3.2 -6.8 0  -2.8 -6.8 0  -2.4 -6.8 0  -2 -6.8 0  -1.6 -6.8 0  -1.199999999999999 -6.8 0  -0.8000000000000007 -6.8 0  -0.4000000000000004 -6.8 0  0 -6.8 0  0.4000000000000004 -6.8 0  0.8000000000000007 -6.8 0  1.199999999999999 -6.8 0  1.6 -6.8 0  2 -6.8 0  2.4 -6.8 0  2.800000000000001 -6.8 0  3.199999999999999 -6.8 0  3.6 -6.8 0  4 -6.8 0  4.4 -6.8 0  4.800000000000001 -6.8 0  5.199999999999999 -6.8 0  5.6 -6.8 0  6 -6.8 0  6.399999999999999 -6.8 0  6.800000000000001 -6.8 0  7.199999999999999 -6.8 0  7.600000000000001 -6.8 0  8 -6.8 0  8.399999999999999 -6.8 0  8.800000000000001 -6.8 0  9.199999999999999 -6.8 0  9.600000000000001 -6.8 0  10 -6.8 0  -10 -6.4 0  -9.6 -6.4 0  -9.199999999999999 -6.4 0  -8.800000000000001 -6.4 0  -8.4 -6.4 0  -8 -6.4 0  -7.6 -6.4 0  -7.2 -6.4 0  -6.8 -6.4 0  -6.4 -6.4 0  -6 -6.4 0  -5.6 -6.4 0  -5.2 -6.4 0  -4.8 -6.4 0  -4.4 -6.4 0  -4 -6.4 0  -3.6 -6.4 0  -3.2 -6.4 0  -2.8 -6.4 0  -2.4 -6.4 0  -2 -6.4 0  -1.6 -6.4 0  -1.199999999999999 -6.4 0  -0.8000000000000007 -6.4 0  -0.4000000000000004 -6.4 0  0 -6.4 0
[...]
<PointData  Scalars="f_214"> 
<DataArray  type="Float64"  Name="f_214"  format="ascii">9.5286202990658539e-05  -6.5685032282759642e-04  1.1543422504057300e-03  -1.5938654916878528e-03  1.9594384502256115e-03  -2.2386111578751996e-03  2.4254292697291832e-03  -2.5208805385573407e-03  2.5325301810239999e-03  -2.4735402706061054e-03  2.3611867578800134e-03  -2.2150222632780388e-03  2.0548640067160821e-03  -1.8988023502791137e-03  1.7614224926746380e-03  -1.6524106980603448e-03  1.5756786527101061e-03  -1.5290893781749442e-03  1.5048091073171495e-03  -1.4902495321319591e-03  1.4695065074438931e-03  -1.4251541289372323e-03  1.3402173166152701e-03  -1.2001293729505421e-03  9.9448124383127675e-04  -7.1838934145200832e-04  3.7334483313589503e-04  3.2542881887916230e-05  -4.8493803768899166e-04  9.6427383716452865e-04  -1.4472618536399012e-03  1.9087760392407342e-03  -2.3239362516252839e-03  2.6701961798124411e-03  -2.9292399028075303e-03  3.0885093202556867e-03  -3.1422193004860483e-03  3.0917660534404531e-03  -2.9454918888760788e-03  2.7178303609164942e-03  -2.4279148760250765e-03  2.0977841946196196e-03  -1.7503565825910769e-03  1.4073655511274137e-03  -1.0874532874669068e-03  8.0460184671899565e-04  -5.6704893010922348e-04  3.7678562369005439e-04  -2.2965303235202462e-04  1.1572311521033880e-04  -1.6406893477954127e-05  -6.5591941424972592e-04  3.2430893123883984e-03  -5.6720574354347832e-03  7.8286846219759818e-03  -9.6220355411459138e-03  1.0989765650952272e-02  -1.1902543607209659e-02  1.2365380358338380e-02  -1.2415749356402873e-02  1.2118735552168993e-02  -1.1559712211483683e-02  1.0835269487613718e-02  -1.0043280817684384e-02  9.2730711820180247e-03  -8.5966381809190126e-03  8.0617714332346917e-03  -7.6877306696810721e-03  7.4638929628726685e-03  -7.3514915906881008e-03  7.2882682126048015e-03  -7.1955776592083414e-03  6.9872458272068547e-03  -6.5793103595188770e-03  5.8996863539584679e-03  -4.8968046262428157e-03  3.5463667872838900e-03  -1.8555408180769780e-03  -1.3583416556815078e-04  2.3571791043217687e-03  -4.7120859096203994e-03  7.0857655059625730e-03  -9.3543460436315701e-03  1.1395155477938641e-02  -1.3097026381020267e-02  1.4369656596836911e-02  -1.5151147515363242e-02  1.5413013955689262e-02  -1.5162199014035921e-02  1.4439911940854045e-02  -1.3317407874560852e-02  1.1889118825121324e-02  -1.0263795565890665e-02  8.5545075495766874e-03  -6.8684536900337810e-03  5.2975518695761413e-03  -3.9106963415529786e-03  2.7484087476940147e-03  -1.8203743563859746e-03  1.1060716584062992e-03  -5.5841272198146918e-04  1.1031669929638803e-04  1.1433788635791023e-03  -5.6261250942665261e-03  9.8300280806854958e-03  -1.3554363234829416e-02  1.6637988335877429e-02  -1.8971189421333187e-02  2.0503197653982529e-02  -2.1244368627325292e-02  2.1262758977818028e-02  -2.0675446826539108e-02  1.9635460207848673e-02  -1.8315596633224927e-02  1.6890710531091323e-02  -1.5520186360570076e-02  1.4332291260027557e-02  -1.3411914613997078e-02  1.2792870537245831e-02  -1.2455495283602815e-02  1.2329756977311389e-02  -1.2303560513949527e-02  1.2235425809343062e-02  -1.1970293072442170e-02  1.1356903539416239e-02  -1.0265048917698038e-02  8.6009916215011219e-03  -6.3195305776524643e-03  3.4315071483370838e-03  -5.9816957874561703e-06  -3.8331778059457061e-03  7.9160174854320114e-03  -1.2039741263816590e-02  1.5985252992273064e-02  -1.9535454335618690e-02  2.2493584445267969e-02  -2.4699879767815510e-02  2.6044989236354840e-02  -2.6478886992182146e-02  2.6014451569437796e-02  -2.4725387048424662e-02  2.2738698589339086e-02  -2.0222451552988751e-02  1.7369989841884665e-02  -1.4382122939272048e-02  1.1448979666179514e-02  -8.7332529831048097e-03  6.3564207901391067e-03  -4.3892368286006424e-03  2.8473716407927110e-03  -1.6925875981349656e-03  8.3931073814038130e-04  -1.6598105892396041e-04  -1.5575439202375908e-03  7.6610372408224079e-03  -1.3372123085036219e-02  1.8410274145162334e-02  -2.2550252856300603e-02  2.5639685382933576e-02  -2.7609843578170028e-02  2.8478697185932215e-02  -2.8345981363404341e-02  2.7380792035518516e-02  -2.5802939163717696e-02  2.3859883884813561e-02  -2.1801503065940031e-02  1.9855126379815482e-02  -1.8203257059126971e-02  1.6966121760788960e-02  -1.6190723468926575e-02  1.5847439092595748e-02  -1.5834471062760175e-02  1.5989700870419107e-02  -1.6108774641702885e-02  1.5967645745115135e-02  -1.5347365657125961e-02  1.4058692654803423e-02  -1.1964100867404877e-02  8.9950178273036936e-03  -5.1625735381840201e-03  5.6076504078882519e-04  4.6383327987175932e-03  -1.0196915948843735e-02  1.5830238550794976e-02  -2.1230097937943764e-02  2.6090822916824716e-02  -3.0135326236547109e-02  3.3138771540677597e-02  -3.4947628480467660e-02  3.5492326078561134e-02  -3.4792322044142600e-02  3.2953126328958152e-02  -3.0155581701140473e-02  2.6638439526304979e-02  -2.2675903898572877e-02  1.8552292653580337e-02  -1.4536232056415315e-02  1.0856839095541132e-02  -7.6841470625863065e-03  5.1156162059949797e-03  -3.1699809735887467e-03  1.7889769821201541e-03  -8.4673005458401848e-04  1.6584115203569804e-04  1.8779330319497946e-03  -9.2346224721027298e-03  1.6096983666808735e-02  -2.2112744286836031e-02  2.7000097475285288e-02  -3.0570207895980802e-02  3.2740994887884282e-02  -3.3540972210325717e-02  3.3102843939863201e-02  -3.1647526708023933e-02  2.9460180001091223e-02  -2.6860587311152477e-02  2.4170764935432715e-02  -2.1682933795465917e-02  1.9630945426326010e-02  -1.8167912964998662e-02  1.7352192748247737e-02  -1.7143051917394743e-02  1.7406417795812933e-02  -1.7930129198206229e-02  1.8447188655639733e-02  -1.8664739327151458e-02  1.8295933487439044e-02  -1.7091575744948621e-02  1.4868440083845524e-02  -1.1531475164929448e-02  7.0876947681918949e-03  -1.6503469379109802e-03  -4.5671136680406517e-03  1.1266746108863366e-02  -1.8090101216030975e-02  2.4648227278273278e-02  -3.0554891308933959e-02  3.5459890866528627e-02  -3.9079317088526529e-02  4.1219916175760263e-02  -4.1795255628253529e-02  4.0832180441481437e-02  -3.8466967919106684e-02  3.4931569941099049e-02  -3.0531273529427090e-02  2.5615925112224571e-02  -2.0547472256523088e-02  1.5666921092737564e-02  -1.1263854537626026e-02  7.5514024393852353e-03  -4.6490234027611408e-03  2.5747011764750659e-03  -1.2472484125737597e-03  4.9843303100455326e-04  -9.3690533700872049e-05  -2.0898594487349662e-03  1.0273443589428331e-02  -1.7874621309549820e-02  2.4479411060355182e-02  -2.9758334826484184e-02  3.3493356085780697e-02  -3.5594348899448409e-02  3.6103597567084547e-02  -3.5187964612880138e-02  3.3119538315591043e-02  -3.0246668936177629e-02  2.6958217205308679e-02  -2.3644482090007409e-02  2.0658585071055408e-02  -1.8282035029848386e-02  1.6697787142341172e-02  -1.5973380542775372e-02  1.6055762254721495e-02  -1.6778274163588219e-02  1.7879103009488313e-02  -1.9029384643036842e-02  1.9868219059755610e-02  -2.0041182080254634e-02  1.9238577389317304e-02  -1.7229692117254381e-02  1.3889697815854574e-02  -9.2165414797633349e-03  3.3361294388244271e-03  3.5047704822824097e-03  -1.0957304443141537e-02  1.8599259399178940e-02  -2.5971057463891955e-02  3.2615633305853327e-02  -3.8118432211321357e-02  4.2143749747439688e-02  -4.4463978331616555e-02  4.4978999702767905e-02  -4.3723899698456227e-02  4.0864294200090696e-02  -3.6679735255692465e-02  3.1536800584002218e-02  -2.5854450783846308e-02  2.0064970906085697e-02  -1.4574227488633870e-02  9.7250286013481364e-03  -5.7670679007530033e-03  2.8362936237452865e-03  -9.4563111644592425e-04  -1.2109000375917805e-05  2.4948149531249921e-04  -5.9302268782722989e-05  2.1877116079454060e-03  -1.0749814110164910e-02  1.8656726174223075e-02  -2.5443995257914191e-02  3.0744250824020079e-02  -3.4318083765753266e-02  3.6072866625128534e-02  -3.6067774230653125e-02  3.4504585027192738e-02  -3.1705201706380498e-02  2.8078097165308475e-02  -2.4076947522339992e-02  2.0155455805859687e-02  -1.6722727886775611e-02  1.4103500109646788e-02  -1.2507043886888164e-02  1.2007730644380826e-02  -1.2539112535171365e-02  1.3902068099363771e-02  -1.5786203831230562e-02  1.7802422016210070e-02  -1.9523485921899092e-02  2.0528639325592440e-02  -2.0447941643307245e-02  1.9002002354450369e-02  -1.6033235591553001e-02  1.1525566446644077e-02  -5.6106266239283296e-03  -1.4402269087691448e-03  9.2373763778682959e-03  -1.7305901115536499e-02  2.5126934498194229e-02  -3.2183515390839940e-02  3.8006594492316428e-02  -4.2216835574401056e-02  4.4558249163326714e-02  -4.4920473427794483e-02  4.3347599134029552e-02  -4.0032718759790309e-02  3.5298742061417678e-02  -2.9567329385926881e-02  2.3318925605528795e-02  -1.7047723050781727e-02  1.1215859480889264e-02  -6.2112220014179783e-03  2.3128736302467038e-03  3.3262021603285312e-04  -1.7217410238444422e-03  1.9904846369994023e-03  -1.3971458932033310e-03  2.9313763688699449e-04  -2.1754611333189016e-03  1.0683432058355648e-02  -1.8479396669218415e-02  2.5060152636883392e-02  -3.0030496618617338e-02  3.3137506162517927e-02  -3.4291353912137182e-02  3.3570709476488082e-02  -3.1212260754525038e-02  2.7585406536104976e-02  -2.3154589808647846e-02  1.8432921266166618e-02  -1.3931572188844213e-02  1.0109815033879314e-02  -7.3305209268781568e-03  5.8253915935916620e-03  -5.6732622731969270e-03  6.7935493764776670e-03  -8.9554563908427840e-03  1.1802031534711724e-02  -1.4886738673812227e-02  1.7718995547117016e-02  -1.9814267162029026e-02  2.0743859815446280e-02  -2.0179585645674559e-02  1.7928956255523959e-02  -1.3957470390547150e-02  8.3957977635012483e-03  -1.5311092646087023e-03  -6.2166737781578522e-03  1.4331490741208893e-02  -2.2247156433477376e-02  2.9398416955462719e-02  -3.5272197358709755e-02  3.9454168573948775e-02  -4.1666205379756432e-02  4.1791176092782573e-02  -3.9882713754534588e-02  3.6159053980424086e-02  -3.0981546408574250e-02  2.4819910828485593e-02  -1.8207573398402347e-02  1.1691363748272298e-02  -5.7803869876625717e-03  8.9895715909889110e-04  2.6519183110617246e-03  -4.7208403942192237e-03  5.3176221586266814e-03  -4.6091260342850668e-03  2.8997839805253445e-03  -5.9872393670956712e-04  2.0660976614337327e-03  -1.0138510844864560e-02  1.7457959797100936e-02  -2.3494056483518020e-02  2.7833523719843451e-02  -3.0217296754723750e-02  3.0562956763320812e-02  -2.8970379906383341e-02  2.5710094789730891e-02  -2.1195497833880014e-02  1.5941621763108454e-02  -1.0514438678005347e-02  5.4755832805980890e-03  -1.3278166385500107e-03  -1.5335252235117718e-03  2.8584335263834248e-03  -2.5658422949362261e-03  7.5069657991077275e-04  2.3261940011357883e-03  -6.2645266806917229e-03  1.0564549954893507e-02  -1.4676912353682113e-02  1.8057501942292904e-02  -2.0221980412543437e-02  2.0794741658774089e-02  -1.9547557576921084e-02  1.6424161727061855e-02  -1.1548369774669796e-02  5.2149154662343459e-03  2.1361605382317671e-03  -9.9591520135575394e-03  1.7652594074959671e-02  -2.4614683497751151e-02  3.0298929084758355e-02  -3.4264723064295337e-02  3.6218008773651854e-02  -3.6038166314498077e-02  3.3788556487541373e-02  -2.9709726670768724e-02  2.4195942119347860e-02  -1.7757300804954003e-02  1.0971069000044196e-02  -4.4269036749033305e-03  -1.3287899948394508e-03  5.8440404654019540e-03  -8.8031378687901639e-03  1.0055117574886455e-02  -9.6261934315144612e-03  7.7149793080472252e-03  -4.6709925319138963e-03  9.5853987814628399e-04  -1.8802035270540291e-03  9.2167335839475843e-03  -1.5774386560986956e-02  2.1006447656370490e-02  -2.4490519215490145e-02  2.5967830498216025e-02  -2.5366906780960912e-02  2.2809343251402971e-02  -1.8597146528975421e-02  1.3182873965822453e-02  -7.1254505044331751e-03  1.0359152699737674e-03  4.4816851156988429e-03  -8.8885764171919134e-03  1.1763111201204421e-02  -1.2841218678252565e-02  1.2041567749603025e-02  -9.4730309208484170e-03  5.4237380419969380e-03  -3.3277815405757696e-04  -5.2527246443929638e-03  1.0731029026500282e-02  -1.5504547099676793e-02  1.9038311288967023e-02  -2.0912508416658041e-02  2.0864020447275065e-02  -1.8812965422713403e-02  1.4871671291602042e-02  -9.3352010717508566e-03  2.6543186663433574e-03  4.6065299083076442e-03  -1.1822205975708638e-02  1.8365770780940809e-02  -2.3667645587791223e-02  2.7269376925393940e-02  -2.8866860187463383e-02  2.8338885153995644e-02  -2.5758273527861607e-02  2.1384547085605755e-02  -1.5638835391451004e-02  9.0634345855219681e-03  -2.2698987771700031e-03  -4.1193555216511822e-03  9.5303318355894791e-03  -1.3491940128305360e-02  1.5680466785175609e-02  -1.5949771521374043e-02  1.4344326211770559e-02  -1.1093859596129274e-02  6.5901386298599703e-03  -1.3481329535973414e-03  1.6438234491514014e-03  -8.0467345445365181e-03  1.3658531430826239e-02  -1.7925901608185482e-02  2.0425088507957417e-02  -2.0902783486616113e-02  1.9300646888208966e-02  -1.5761101064021028e-02  1.0613836181507578e-02  -4.3443214419882888e-03  -2.4526584369412023e-03  9.1299838227714633e-03  -1.5050230395315202e-02  1.9646796469690680e-02  -2.2478261154010890e-02  2.3270756237223959e-02  -2.1944284981143269e-02  1.8620461040667426e-02  -1.3610923953163042e-02  7.3875416055363616e-03  -5.3725794155417249e-04  -6.2940823299923714e-03  1.2463542840378027e-02  -1.7392608596594344e-02  2.0622501947784196e-02  -2.1857995473550541e-02  2.0995519817846309e-02  -1.8132872323291801e-02  1.3559598173234252e-02  -7.7289707656872531e-03  1.2142644129305212e-03  5.3464804300953298e-03  -1.1311894337780777e-02  1.6099018946059165e-02  -1.9239420751018681e-02  2.0424290646043893e-02  -1.9534198051801316e-02  1.6650642349190357e-02  -1.2048291142613892e-02  6.1686496487759028e-03  4.2231205744814861e-04  -7.0885070283303485e-03  1.3184837946144145e-02  -1.8119195938367482e-02  2.1409400021288889e-02  -2.2729610122045243e-02  2.1941757107689773e-02  -1.9108970252255737e-02  1.4489711271941387e-02  -8.5131743503169960e-03  1.7383104737437281e-03  -1.3858383614739761e-03  6.7711337657651478e-03  -1.1365016915360513e-02  1.4615903475214105e-02  -1.6105008745219265e-02  1.5588193475035782e-02  -1.3020961362128424e-02  8.5641846882135910e-03  -2.5699858267453223e-03  -4.4508905990023606e-03  1.1877101374627582e-02  -1.9035530156953039e-02  2.5265281249364054e-02  -2.9980708624322321e-02  3.2727437252437284e-02  -3.3226002239906190e-02  3.1398916936176365e-02  -2.7378568263270210e-02  2.1495174333868643e-02  -1.4245949915003530e-02  6.2484259658650626e-03  1.8176123615502721e-03  -9.2740149660978880e-03  1.5507872272043545e-02  -2.0028754867251010e-02  2.2514117712732894e-02  -2.2838537040556672e-02  2.1084000137385310e-02  -1.7530287383658399e-02  1.2626396991884560e-02  -6.9457814111931427e-03  1.1297179043105617e-03  4.1757268170639567e-03  -8.3830647797934737e-03  1.1020984544906879e-02  -1.1780631479523782e-02  1.0546112561666293e-02  -7.4062842780670372e-03  2.6466821443114847e-03  3.2776408743257230e-03  -9.7857635896906187e-03  1.6226844386400069e-02  -2.1942994880935745e-02  2.6333038165049619e-02  -2.8911022688357230e-02  2.9353863231155356e-02  -2.7533520272979416e-02  2.3530611685669826e-02  -1.7628129363419381e-02  1.0285841754475751e-02  -2.0978146286134416e-03  1.1350978532012601e-03  -5.5323803258171796e-03  9.1479986931194690e-03  -1.1438912453759461e-02  1.1996131718778951e-02  -1.0586895584913814e-02  7.1797841548809109e-03  -1.9503107230619315e-03  -4.7335822977717396e-03  1.2344767786171650e-02  -2.0245760080280367e-02  2.7748463525024625e-02  -3.4179131048323715e-02  3.8942314641793020e-02  -4.1577680864543894e-02  4.1804243073918827e-02  -3.9547764412384452e-02  3.4948694477926298e-02  -2.8349865501692634e-02  2.0265110673800688e-02  -1.1331793213632419e-02  2.2517738577749386e-03  6.2735501655249775e-03  -1.3607936857557816e-02  1.9238553381263866e-02  -2.2822244233797018e-02  2.4215418494638475e-02  -2.3484734675897272e-02  2.0897605514702038e-02  -1.6893481815393241e-02  1.2038718941390945e-02  -6.9694033707036387e-03  2.3276706153087952e-03  1.3023327953117613e-03  -3.4526593194396664e-03  3.8183224091803249e-03  -2.2880935414903913e-03  -1.0436450876789758e-03  5.8851482343716104e-03  -1.1774876367735857e-02  1.8125746310596540e-02  -2.4281817047807318e-02  2.9581964889378157e-02  -3.3424425140766482e-02  3.5325988701797484e-02  -3.4970149676640673e-02  3.2239555213005151e-02  -2.7229611042910346e-02  2.0241900671071580e-02  -1.1758010015841236e-02  2.3962269320568531e-03  -9.1758805361902122e-04  4.4587708667587038e-03  -7.2362459283881299e-03  8.7208808321356836e-03  -8.5168792831166549e-03  6.4036853608177326e-03  -2.3608646717218841e-03  -3.4264833559853884e-03  1.0582354683625212e-02  -1.8573155903476274e-02  2.6756550744721289e-02  -3.4441185991068747e-02  4.0951594054245352e-02  -4.5692065372634608e-02  4.8203374593250706e-02  -4.8206923148004940e-02  4.5632060087554840e-02  -4.0623950070442415e-02  3.3531216358200909e-02  -2.4874520777687533e-02  1.5299064453619678e-02  -5.5155304362639592e-03  -3.7649077579304433e-03  1.1895323703167244e-02  -1.8351362277967381e-02  2.2777610961513237e-02  -2.5017628386767063e-02  2.5124811257769379e-02  -2.3353120607178583e-02  2.0128621735459089e-02  -1.6004632494627451e-02  1.1604846249709675e-02  -7.5599465890046867e-03  4.4438522919802784e-03  -2.7157615913815957e-03  2.6736028181051381e-03  -4.4233974141619781e-03  7.8675077431979504e-03  -1.2712921610545769e-02  1.8498795658308639e-02  -2.4640622487299740e-02  3.0486783636282773e-02  -3.5382053052766593e-02  3.8731941399716939e-02  -4.0061682523386703e-02  3.9064170966563096e-02  -3.5632212575104516e-02  2.9871949894267426e-02  -2.2096125441077495e-02  1.2797775854191475e-02  -2.6068246607921222e-03  7.5390779607308956e-04  -3.6519904825262016e-03  5.8109370259991746e-03  -6.7196439157900896e-03  5.9977110771812754e-03  -3.4364849056943377e-03  -9.7661866243799449e-04  7.0529119966054243e-03  -1.4416915531196084e-02  2.2539185968630207e-02  -3.0784391450024137e-02  3.8470061922997505e-02  -4.4930410107265742e-02  4.9579123505423060e-02  -5.1965117800532000e-02  5.1815908203619504e-02  -4.9064434953744858e-02  4.3856757760015720e-02  -3.6539861059144585e-02  2.7630712642725198e-02  -1.7769508732939632e-02  7.6615488156775696e-03  1.9867319928616742e-03  -1.0531491018904300e-02  1.7448912990618452e-02  -2.2380906416238397e-02  2.5164746178493159e-02  -2.5843890402100111e-02  2.4659007492617773e-02  -2.2020148812686758e-02  1.8462810999389651e-02  -1.4592176036424986e-02  1.1020948206193197e-02  -8.3068176139722526e-03  6.8956102476008981e-03  -7.0756324141446683e-03  8.9476359844434545e-03  -1.2413323713423309e-02  1.7183526090238519e-02  -2.2805284343323549e-02  2.8705250659520731e-02  -3.4245240877443954e-02  3.8784599799620866e-02  -4.1743375882610685e-02  4.2660215709330977e-02  -4.1239386985351706e-02  3.7382374339644663e-02  -3.1200965606503914e-02  2.3010516527559002e-02  -1.3303978516011467e-02  2.7091160707804567e-03  -6.5729585595670538e-04  3.1773739414118814e-03  -4.9883057615836435e-03  5.6002197804874854e-03  -4.6494603750317984e-03  1.9382051942414468e-03  2.5420793126492607e-03  -8.6056645579267437e-03  1.5886610205200373e-02  -2.3870548179167173e-02  3.1941201125373728e-02  -3.9437214599769017e-02  4.5713883930997096e-02  -5.0203878175168547e-02  5.2471150722212520e-02  -5.2252870418713238e-02  4.9485347339135961e-02  -4.4311454183936498e-02  3.7068810594349119e-02  -2.8259835181353738e-02  1.8506501850067750e-02  -8.4940966420622346e-03  -1.0906795923320122e-03  9.6213819471458739e-03  -1.6587411783729415e-02  2.1638261175887227e-02  -2.4612238247698273e-02  2.5546992633835947e-02  -2.4670907661141144e-02  2.2376262925664522e-02  -1.9176818901617779e-02  1.5653968663506684e-02  -1.2396694794599858e-02  9.9411605412646348e-03  -8.7157929916090501e-03  8.9971828407811837e-03  -1.0881079388633468e-02  1.4271303051050106e-02  -1.8887668514433308e-02  2.4292178580410145e-02  -2.9930985183485064e-02  3.5188091540860889e-02  -3.9445632215245413e-02  4.2144927911547302e-02  -4.2842427474514402e-02  4.1255131983597863e-02  -3.7291096925387020e-02  3.1062033246244229