<?xml version="1.0"?>
<VTKFile type="UnstructuredGrid"  version="0.1"  >
<UnstructuredGrid>
<Piece  NumberOfPoints="2601" NumberOfCells="5000">
<Points>
<DataArray  type="Float64"  NumberOfComponents="3"  format="ascii">-10 -10 0  -9.6 -10 0  -9.199999999999999 -10 0  -8.800000000000001 -10 0  -8.4 -10 0  -8 -10 0  -7.6 -10 0  -7.2 -10 0  -6.8 -10 0  -6.4 -10 0  -6 -10 0  -5.6 -10 0  -5.2 -10 0  -4.8 -10 0  -4.4 -10 0  -4 -10 0  -3.6 -10 0  -3.2 -10 0  -2.8 -10 0  -2.4 -10 0  -2 -10 0  -1.6 -10 0  -1.199999999999999 -10 0  -0.8000000000000007 -10 0  -0.4000000000000004 -10 0  0 -10 0  0.4000000000000004 -10 0  0.8000000000000007 -10 0  1.199999999999999 -10 0  1.6 -10 0  2 -10 0  2.4 -10 0  2.800000000000001 -10 0  3.199999999999999 -10 0  3.6 -10 0  4 -10 0  4.4 -10 0  4.800000000000001 -10 0  5.199999999999999 -10 0  5.6 -10 0  6 -10 0  6.399999999999999 -10 0  6.800000000000001 -10 0  7.199999999999999 -10 0  7.600000000000001 -10 0  8 -10 0  8.399999999999999 -10 0  8.800000000000001 -10 0  9.199999999999999 -10 0  9.600000000000001 -10 0  10 -10 0  -10 -9.6 0  -9.6 -9.6 0  -9.199999999999999 -9.6 0  -8.800000000000001 -9.6 0  -8.4 -9.6 0  -8 -9.6 0  -7.6 -9.6 0  -7.2 -9.6 0  -6.8 -9.6 0  -6.4 -9.6 0  -6 -9.6 0  -5.6 -9.6 0  -5.2 -9.6 0  -4.8 -9.6 0  -4.4 -9.6 0  -4 -9.6 0  -3.6 -9.6 0  -3.2 -9.6 0  -2.8 -9.6 0  -2.4 -9.6 0  -2 -9.6 0  -1.6 -9.6 0  -1.199999999999999 -9.6 0  -0.8000000000000007 -9.6 0  -0.4000000000000004 -9.6 0  0 -9.6 0  0.4000000000000004 -9.6 0  0.8000000000000007 -9.6 0  1.199999999999999 -9.6 0  1.6 -9.6 0  2 -9.6 0  2.4 -9.6 0  2.800000000000001 -9.6 0  3.199999999999999 -9.6 0  3.6 -9.6 0  4 -9.6 0  4.4 -9.6 0  4.800000000000001 -9.6 0  5.199999999999999 -9.6 0  5.6 -9.6 0  6 -9.6 0  6.399999999999999 -9.6 0  6.800000000000001 -9.6 0  7.199999999999999 -9.6 0  7.600000000000001 -9.6 0  8 -9.6 0  8.399999999999999 -9.6 0  8.800000000000001 -9.6 0  9.199999999999999 -9.6 0  9.600000000000001 -9.6 0  10 -9.6 0  -10 -9.199999999999999 0  -9.6 -9.199999999999999 0  -9.199999999999999 -9.199999999999999 0  -8.800000000000001 -9.199999999999999 0  -8.4 -9.199999999999999 0  -8 -9.199999999999999 0  -7.6 -9.199999999999999 0  -7.2 -9.199999999999999 0  -6.8 -9.199999999999999 0  -6.4 -9.199999999999999 0  -6 -9.199999999999999 0  -5.6 -9.199999999999999 0  -5.2 -9.199999999999999 0  -4.8 -9.199999999999999 0  -4.4 -9.199999999999999 0  -4 -9.199999999999999 0  -3.6 -9.199999999999999 0  -3.2 -9.199999999999999 0  -2.8 -9.199999999999999 0  -2.4 -9.199999999999999 0  -2 -9.199999999999999 0  -1.6 -9.199999999999999 0  -1.199999999999999 -9.199999999999999 0  -0.8000000000000007 -9.199999999999999 0  -0.4000000000000004 -9.199999999999999 0  0 -9.199999999999999 0  0.4000000000000004 -9.199999999999999 0  0.8000000000000007 -9.199999999999999 0  1.199999999999999 -9.199999999999999 0  1.6 -9.199999999999999 0  2 -9.199999999999999 0  2.4 -9.199999999999999 0  2.800000000000001 -9.199999999999999 0  3.199999999999999 -9.199999999999999 0  3.6 -9.199999999999999 0  4 -9.199999999999999 0  4.4 -9.199999999999999 0  4.800000000000001 -9.199999999999999 0  5.199999999999999 -9.199999999999999 0  5.6 -9.199999999999999 0  6 -9.199999999999999 0  6.399999999999999 -9.199999999999999 0  6.800000000000001 -9.199999999999999 0  7.199999999999999 -9.199999999999999 0  7.600000000000001 -9.199999999999999 0  8 -9.199999999999999 0  8.399999999999999 -9.199999999999999 0  8.800000000000001 -9.199999999999999 0  9.199999999999999 -9.199999999999999 0  9.600000000000001 -9.199999999999999 0  10 -9.199999999999999 0  -10 -8.800000000000001 0  -9.6 -8.800000000000001 0  -9.199999999999999 -8.800000000000001 0  -8.800000000000001 -8.800000000000001 0  -8.4 -8.800000000000001 0  -8 -8.800000000000001 0  -7.6 -8.800000000000001 0  -7.2 -8.800000000000001 0  -6.8 -8.800000000000001 0  -6.4 -8.800000000000001 0  -6 -8.800000000000001 0  -5.6 -8.800000000000001 0  -5.2 -8.800000000000001 0  -4.8 -8.800000000000001 0  -4.4 -8.800000000000001 0  -4 -8.800000000000001 0  -3.6 -8.800000000000001 0  -3.2 -8.800000000000001 0  -2.8 -8.800000000000001 0  -2.4 -8.800000000000001 0  -2 -8.800000000000001 0  -1.6 -8.800000000000001 0  -1.199999999999999 -8.800000000000001 0  -0.8000000000000007 -8.800000000000001 0  -0.4000000000000004 -8.800000000000001 0  0 -8.800000000000001 0  0.4000000000000004 -8.800000000000001 0  0.8000000000000007 -8.800000000000001 0  1.199999999999999 -8.800000000000001 0  1.6 -8.800000000000001 0  2 -8.800000000000001 0  2.4 -8.800000000000001 0  2.800000000000001 -8.800000000000001 0  3.199999999999999 -8.800000000000001 0  3.6 -8.800000000000001 0  4 -8.800000000000001 0  4.4 -8.800000000000001 0  4.800000000000001 -8.800000000000001 0  5.199999999999999 -8.800000000000001 0  5.6 -8.800000000000001 0  6 -8.800000000000001 0  6.399999999999999 -8.800000000000001 0  6.800000000000001 -8.800000000000001 0  7.199999999999999 -8.800000000000001 0  7.600000000000001 -8.800000000000001 0  8 -8.800000000000001 0  8.399999999999999 -8.800000000000001 0  8.800000000000001 -8.800000000000001 0  9.199999999999999 -8.800000000000001 0  9.600000000000001 -8.800000000000001 0  10 -8.800000000000001 0  -10 -8.4 0  -9.6 -8.4 0  -9.199999999999999 -8.4 0  -8.800000000000001 -8.4 0  -8.4 -8.4 0  -8 -8.4 0  -7.6 -8.4 0  -7.2 -8.4 0  -6.8 -8.4 0  -6.4 -8.4 0  -6 -8.4 0  -5.6 -8.4 0  -5.2 -8.4 0  -4.8 -8.4 0  -4.4 -8.4 0  -4 -8.4 0  -3.6 -8.4 0  -3.2 -8.4 0  -2.8 -8.4 0  -2.4 -8.4 0  -2 -8.4 0  -1.6 -8.4 0  -1.199999999999999 -8.4 0  -0.8000000000000007 -8.4 0  -0.4000000000000004 -8.4 0  0 -8.4 0  0.4000000000000004 -8.4 0  0.8000000000000007 -8.4 0  1.199999999999999 -8.4 0  1.6 -8.4 0  2 -8.4 0  2.4 -8.4 0  2.800000000000001 -8.4 0  3.199999999999999 -8.4 0  3.6 -8.4 0  4 -8.4 0  4.4 -8.4 0  4.800000000000001 -8.4 0  5.199999999999999 -8.4 0  5.6 -8.4 0  6 -8.4 0  6.399999999999999 -8.4 0  6.800000000000001 -8.4 0  7.199999999999999 -8.4 0  7.600000000000001 -8.4 0  8 -8.4 0  8.399999999999999 -8.4 0  8.800000000000001 -8.4 0  9.199999999999999 -8.4 0  9.600000000000001 -8.4 0  10 -8.4 0  -10 -8 0  -9.6 -8 0  -9.199999999999999 -8 0  -8.800000000000001 -8 0  -8.4 -8 0  -8 -8 0  -7.6 -8 0  -7.2 -8 0  -6.8 -8 0  -6.4 -8 0  -6 -8 0  -5.6 -8 0  -5.2 -8 0  -4.8 -8 0  -4.4 -8 0  -4 -8 0  -3.6 -8 0  -3.2 -8 0  -2.8 -8 0  -2.4 -8 0  -2 -8 0  -1.6 -8 0  -1.199999999999999 -8 0  -0.8000000000000007 -8 0  -0.4000000000000004 -8 0  0 -8 0  0.4000000000000004 -8 0  0.8000000000000007 -8 0  1.199999999999999 -8 0  1.6 -8 0  2 -8 0  2.4 -8 0  2.800000000000001 -8 0  3.199999999999999 -8 0  3.6 -8 0  4 -8 0  4.4 -8 0  4.800000000000001 -8 0  5.199999999999999 -8 0  5.6 -8 0  6 -8 0  6.399999999999999 -8 0  6.800000000000001 -8 0  7.199999999999999 -8 0  7.600000000000001 -8 0  8 -8 0  8.399999999999999 -8 0  8.800000000000001 -8 0  9.199999999999999 -8 0  9.600000000000001 -8 0  10 -8 0  -10 -7.6 0  -9.6 -7.6 0  -9.199999999999999 -7.6 0  -8.800000000000001 -7.6 0  -8.4 -7.6 0  -8 -7.6 0  -7.6 -7.6 0  -7.2 -7.6 0  -6.8 -7.6 0  -6.4 -7.6 0  -6 -7.6 0  -5.6 -7.6 0  -5.2 -7.6 0  -4.8 -7.6 0  -4.4 -7.6 0  -4 -7.6 0  -3.6 -7.6 0  -3.2 -7.6 0  -2.8 -7.6 0  -2.4 -7.6 0  -2 -7.6 0  -1.6 -7.6 0  -1.199999999999999 -7.6 0  -0.8000000000000007 -7.6 0  -0.4000000000000004 -7.6 0  0 -7.6 0  0.4000000000000004 -7.6 0  0.8000000000000007 -7.6 0  1.199999999999999 -7.6 0  1.6 -7.6 0  2 -7.6 0  2.4 -7.6 0  2.800000000000001 -7.6 0  3.199999999999999 -7.6 0  3.6 -7.6 0  4 -7.6 0  4.4 -7.6 0  4.800000000000001 -7.6 0  5.199999999999999 -7.6 0  5.6 -7.6 0  6 -7.6 0  6.399999999999999 -7.6 0  6.800000000000001 -7.6 0  7.199999999999999 -7.6 0  7.600000000000001 -7.6 0  8 -7.6 0  8.399999999999999 -7.6 0  8.800000000000001 -7.6 0  9.199999999999999 -7.6 0  9.600000000000001 -7.6 0  10 -7.6 0  -10 -7.2 0  -9.6 -7.2 0  -9.199999999999999 -7.2 0  -8.800000000000001 -7.2 0  -8.4 -7.2 0  -8 -7.2 0  -7.6 -7.2 0  -7.2 -7.2 0  -6.8 -7.2 0  -6.4 -7.2 0  -6 -7.2 0  -5.6 -7.2 0  -5.2 -7.2 0  -4.8 -7.2 0  -4.4 -7.2 0  -4 -7.2 0  -3.6 -7.2 0  -3.2 -7.2 0  -2.8 -7.2 0  -2.4 -7.2 0  -2 -7.2 0  -1.6 -7.2 0  -1.199999999999999 -7.2 0  -0.8000000000000007 -7.2 0  -0.4000000000000004 -7.2 0  0 -7.2 0  0.4000000000000004 -7.2 0  0.8000000000000007 -7.2 0  1.199999999999999 -7.2 0  1.6 -7.2 0  2 -7.2 0  2.4 -7.2 0  2.800000000000001 -7.2 0  3.199999999999999 -7.2 0  3.6 -7.2 0  4 -7.2 0  4.4 -7.2 0  4.800000000000001 -7.2 0  5.199999999999999 -7.2 0  5.6 -7.2 0  6 -7.2 0  6.399999999999999 -7.2 0  6.800000000000001 -7.2 0  7.199999999999999 -7.2 0  7.600000000000001 -7.2 0  8 -7.2 0  8.399999999999999 -7.2 0  8.800000000000001 -7.2 0  9.199999999999999 -7.2 0  9.600000000000001 -7.2 0  10 -7.2 0  -10 -6.8 0  -9.6 -6.8 0  -9.199999999999999 -6.8 0  -8.800000000000001 -6.8 0  -8.4 -6.8 0  -8 -6.8 0  -7.6 -6.8 0  -7.2 -6.8 0  -6.8 -6.8 0  -6.4 -6.8 0  -6 -6.8 0  -5.6 -6.8 0  -5.2 -6.8 0  -4.8 -6.8 0  -4.4 -6.8 0  -4 -6.8 0  -3.6 -6.8 0  -3.2 -6.8 0  -2.8 -6.8 0  -2.4 -6.8 0  -2 -6.8 0  -1.6 -6.8 0  -1.199999999999999 -6.8 0  -0.8000000000000007 -6.8 0  -0.4000000000000004 -6.8 0  0 -6.8 0  0.4000000000000004 -6.8 0  0.8000000000000007 -6.8 0  1.199999999999999 -6.8 0  1.6 -6.8 0  2 -6.8 0  2.4 -6.8 0  2.800000000000001 -6.8 0  3.199999999999999 -6.8 0  3.6 -6.8 0  4 -6.8 0  4.4 -6.8 0  4.800000000000001 -6.8 0  5.199999999999999 -6.8 0  5.6 -6.8 0  6 -6.8 0  6.399999999999999 -6.8 0  6.800000000000001 -6.8 0  7.199999999999999 -6.8 0  7.600000000000001 -6.8 0  8 -6.8 0  8.399999999999999 -6.8 0  8.800000000000001 -6.8 0  9.199999999999999 -6.8 0  9.600000000000001 -6.8 0  10 -6.8 0  -10 -6.4 0  -9.6 -6.4 0  -9.199999999999999 -6.4 0  -8.800000000000001 -6.4 0  -8.4 -6.4 0  -8 -6.4 0  -7.6 -6.4 0  -7.2 -6.4 0  -6.8 -6.4 0  -6.4 -6.4 0  -6 -6.4 0  -5.6 -6.4 0  -5.2 -6.4 0  -4.8 -6.4 0  -4.4 -6.4 0  -4 -6.4 0  -3.6 -6.4 0  -3.2 -6.4 0  -2.8 -6.4 0  -2.4 -6.4 0  -2 -6.4 0  -1.6 -6.4 0  -1.199999999999999 -6.4 0  -0.8000000000000007 -6.4 0  -0.4000000000000004 -6.4 0  0 -6.4 0
[...]
<PointData  Scalars="f_126"> 
<DataArray  type="Float64"  Name="f_126"  format="ascii">-6.1424913087424355e-05  4.2570805931622235e-04  -7.5451630936484353e-04  1.0552716639578169e-03  -1.3191828716776395e-03  1.5372490941932108e-03  -1.7019201828975200e-03  1.8074828685849520e-03  -1.8502731315449780e-03  1.8288058303288801e-03  -1.7438269270848563e-03  1.5982878180208718e-03  -1.3972429371197509e-03  1.1476742720172787e-03  -8.5824891648576362e-04  5.3901809154854668e-04  -2.0106809306456348e-04  -1.4386470975337955e-04  4.8380145324840708e-04  -8.0693678056028705e-04  1.1020488179027104e-03  -1.3588888879739107e-03  1.5685374263705494e-03  -1.7237137406324020e-03  1.8190288545210666e-03  -1.8511726567070445e-03  1.8190288545186792e-03  -1.7237137406275285e-03  1.5685374263641311e-03  -1.3588888879662512e-03  1.1020488178948358e-03  -8.0693678055256460e-04  4.8380145324167993e-04  -1.4386470974849660e-04  -2.0106809306710556e-04  5.3901809154842395e-04  -8.5824891648236899e-04  1.1476742720106701e-03  -1.3972429371097773e-03  1.5982878180076758e-03  -1.7438269270685640e-03  1.8288058303103426e-03  -1.8502731315243660e-03  1.8074828685637190e-03  -1.7019201828764922e-03  1.5372490941734783e-03  -1.3191828716599462e-03  1.0552716639433636e-03  -7.5451630935454643e-04  4.2570805931046936e-04  -6.1424913086545121e-05  4.2570805931628562e-04  -2.1167097412249022e-03  3.7342022663838961e-03  -5.2214853838540238e-03  6.5272116096001687e-03  -7.6061717763919240e-03  8.4209464499100384e-03  -8.9432599202357559e-03  9.1549817627949587e-03  -9.0487633097497029e-03  8.6282953950139359e-03  -7.9081812054313944e-03  6.9134295919158813e-03  -5.6785867750714404e-03  4.2465367310376536e-03  -2.6670119729558660e-03  9.9486647045615153e-04  7.1182930287553388e-04  -2.3938050327776271e-03  3.9926489003557454e-03  -5.4528361070844784e-03  6.7236571409657331e-03  -7.7609788182415890e-03  8.5287769426629877e-03  -9.0003873557419345e-03  9.1594319312336570e-03  -9.0003873557297619e-03  8.5287769426397701e-03  -7.7609788182095765e-03  6.7236571409282206e-03  -5.4528361070448894e-03  3.9926489003175789e-03  -2.3938050327443811e-03  7.1182930285106885e-04  9.9486647046920923e-04  -2.6670119729551942e-03  4.2465367310213263e-03  -5.6785867750386715e-03  6.9134295918665519e-03  -7.9081812053660629e-03  8.6282953949336737e-03  -9.0487633096572751e-03  9.1549817626939076e-03  -8.9432599201306560e-03  8.4209464498063817e-03  -7.6061717762941549e-03  6.5272116095132704e-03  -5.2214853837827951e-03  3.7342022663324889e-03  -2.1167097411956639e-03  4.2570805931048129e-04  -7.5451630936501765e-04  3.7342022663841095e-03  -6.5847346637572255e-03  9.2065922064118177e-03  -1.1508652021598224e-02  1.3410985247598813e-02  -1.4847548179276160e-02  1.5768465024384413e-02  -1.6141761749911387e-02  1.5954478826105341e-02  -1.5213122756698524e-02  1.3943440928242319e-02  -1.2189527886775844e-02  1.0012294255740727e-02  -7.4873515602659931e-03  4.7023864618313304e-03  -1.7541156159018962e-03  -1.2550730824361302e-03  4.2206762146277796e-03  -7.0397040293960905e-03  9.6142570709164144e-03  -1.1854926033563438e-02  1.3683896771902510e-02  -1.5037652634292922e-02  1.5869180272837617e-02  -1.6149602325863235e-02  1.5869180272815579e-02  -1.5037652634251037e-02  1.3683896771845092e-02  -1.1854926033495864e-02  9.6142570708449612e-03  -7.0397040293267094e-03  4.2206762145669064e-03  -1.2550730823904762e-03  -1.7541156159269356e-03  4.7023864618319679e-03  -7.4873515602388299e-03  1.0012294255684029e-02  -1.2189527886689453e-02  1.3943440928127319e-02  -1.5213122756556912e-02  1.5954478825942281e-02  -1.6141761749733280e-02  1.5768465024199381e-02  -1.4847548179093053e-02  1.3410985247426326e-02  -1.1508652021444642e-02  9.2065922062858872e-03  -6.5847346636655566e-03  3.7342022663317824e-03  -7.5451630935436591e-04  1.0552716639578878e-03  -5.2214853838549362e-03  9.2065922064130268e-03  -1.2872043158759502e-02  1.6090473426208406e-02  -1.8750094850624895e-02  2.0758543835120932e-02  -2.2046074834677448e-02  2.2567978254090511e-02  -2.2306132289317864e-02  2.1269632348474232e-02  -1.9494475429191072e-02  1.7042310221390418e-02  -1.3998296315306384e-02  1.0468146871953802e-02  -6.5744574737164546e-03  2.4524486586740969e-03  1.7547299999616302e-03  -5.9009711840449109e-03  9.8422838438288699e-03  -1.3441793721674377e-02  1.6574496726210489e-02  -1.9131600080483983e-02  2.1024300483719158e-02  -2.2186868077927725e-02  2.2578929118801418e-02  -2.2186868077896174e-02  2.1024300483659036e-02  -1.9131600080400990e-02  1.6574496726112286e-02  -1.3441793721569577e-02  9.8422838437261847e-03  -5.9009711839537911e-03  1.7547299998921361e-03  2.4524486587143767e-03  -6.5744574737217325e-03  1.0468146871919078e-02  -1.3998296315228862e-02  1.7042310221270184e-02  -1.9494475429029400e-02  2.1269632348274701e-02  -2.2306132289087472e-02  2.2567978253838959e-02  -2.2046074834416035e-02  2.0758543834862343e-02  -1.8750094850381070e-02  1.6090473425991424e-02  -1.2872043158581530e-02  9.2065922062835991e-03  -5.2214853837807855e-03  1.0552716639428625e-03  -1.3191828716781983e-03  6.5272116096032019e-03  -1.1508652021603066e-02  1.6090473426212615e-02  -2.0113522826339051e-02  2.3438069227474372e-02  -2.5948650861654727e-02  2.7558078783724030e-02  -2.8210461347158440e-02  2.7883143721690366e-02  -2.6587494111270166e-02  2.4368508812296522e-02  -2.1303249575602427e-02  1.7498167438348242e-02  -1.3085405927458712e-02  8.2182120060740552e-03  -3.0656141299837958e-03  -2.1934477642638899e-03  7.3763364838896964e-03  -1.2303060207601647e-02  1.6802523248092473e-02  -2.0718467871453438e-02  2.3914900824825436e-02  -2.6280816118854959e-02  2.7734050051363517e-02  -2.8224134594332016e-02  2.7734050051322224e-02  -2.6280816118776109e-02  2.3914900824715785e-02  -2.0718467871322636e-02  1.6802523247951385e-02  -1.2303060207462246e-02  7.3763364837649966e-03  -2.1934477641661490e-03  -3.0656141300438909e-03  8.2182120060886928e-03  -1.3085405927421257e-02  1.7498167438254934e-02  -2.1303249575452703e-02  2.4368508812092585e-02  -2.6587494111017494e-02  2.7883143721397802e-02  -2.8210461346838453e-02  2.7558078783391310e-02  -2.5948650861325091e-02  2.3438069227163676e-02  -2.0113522826063022e-02  1.6090473425986417e-02  -1.1508652021438548e-02  6.5272116095090307e-03  -1.3191828716590539e-03  1.5372490941947415e-03  -7.6061717763992089e-03  1.3410985247610790e-02  -1.8750094850638298e-02  2.3438069227483975e-02  -2.7312092487300210e-02  3.0237620613976224e-02  -3.2113052586785089e-02  3.2873257203670535e-02  -3.2491833905372823e-02  3.0982029042819555e-02  -2.8396275583842213e-02  2.4824372102892723e-02  -2.0390364211265031e-02  1.5248236686936615e-02  -9.5765658874874069e-03  3.5723181481617512e-03  2.5559904691478210e-03  -8.5955355286766559e-03  1.4336575197377108e-02  -1.9579734170757982e-02  2.4142927590872006e-02  -2.7867684501687522e-02  3.0624651239985569e-02  -3.2318083639235294e-02  3.2889172040539406e-02  -3.2318083639183738e-02  3.0624651239886558e-02  -2.7867684501549330e-02  2.4142927590705847e-02  -1.9579734170577498e-02  1.4336575197197660e-02  -8.5955355285136942e-03  2.5559904690169383e-03  3.5723181482473819e-03  -9.5765658875172043e-03  1.5248236686902587e-02  -2.0390364211162072e-02  2.4824372102720125e-02  -2.8396275583602849e-02  3.0982029042520773e-02  -3.2491833905025073e-02  3.2873257203289076e-02  -3.2113052586387941e-02  3.0237620613582483e-02  -2.7312092486929007e-02  2.3438069227154440e-02  -1.8750094850367719e-02  1.3410985247414043e-02  -7.6061717762865976e-03  1.5372490941719661e-03  -1.7019201829001089e-03  8.4209464499232310e-03  -1.4847548179298150e-02  2.0758543835147261e-02  -2.5948650861679311e-02  3.0237620613992162e-02  -3.3476500604105161e-02  3.5552807718767329e-02  -3.6394434132781713e-02  3.5972150969265371e-02  -3.4300622980097638e-02  3.1437899027593107e-02  -2.7483396024655934e-02  2.2574446307757158e-02  -1.6881528317417585e-02  1.0602346197832090e-02  -3.9549639096123574e-03  -2.8297677108164486e-03  9.5162279543599872e-03  -1.5872208891195810e-02  2.1676979504270565e-02  -2.6728951252593128e-02  3.0852678853895938e-02  -3.3904953162689842e-02  3.5779774549482404e-02  -3.6412034064996740e-02  3.5779774549419455e-02  -3.3904953162568655e-02  3.0852678853726227e-02  -2.6728951252388441e-02  2.1676979504047102e-02  -1.5872208890971320e-02  9.5162279541535326e-03  -2.8297677106462150e-03  -3.9549639097299343e-03  1.0602346197884072e-02  -1.6881528317394427e-02  2.2574446307652523e-02  -2.7483396024468691e-02  3.1437899027327611e-02  -3.4300622979761976e-02  3.5972150968872019e-02  -3.6394434132348344e-02  3.5552807718314913e-02  -3.3476500603655771e-02  3.0237620613568689e-02  -2.5948650861303043e-02  2.0758543834838269e-02  -1.4847548179073022e-02  8.4209464497943531e-03  -1.7019201828741954e-03  1.8074828685890009e-03  -8.9432599202558961e-03  1.5768465024419004e-02  -2.2046074834720934e-02  2.7558078783768879e-02  -3.2113052586823364e-02  3.5552807718790720e-02  -3.7757885694159665e-02  3.8651706729579308e-02  -3.8203229072652757e-02  3.6428026838685533e-02  -3.3387748999204415e-02  2.9187978325766806e-02  -2.3974564636882859e-02  1.7928559675623346e-02  -1.1259929509646802e-02  4.2002628025500002e-03  3.0052718205335555e-03  -1.0106440010760744e-02  1.6856631855360221e-02  -2.3021426167637950e-02  2.8386731486190680e-02  -3.2766221062075218e-02  3.6007803630956757e-02  -3.7998905252524397e-02  3.8670378788796964e-02  -3.7998905252448922e-02  3.6007803630811221e-02  -3.2766221061871166e-02  2.8386731485944072e-02  -2.3021426167367444e-02  1.6856631855086859e-02  -1.0106440010505981e-02  3.0052718203185300e-03  4.2002628027060056e-03  -1.1259929509728818e-02  1.7928559675619651e-02  -2.3974564636786419e-02  2.9187978325575827e-02  -3.3387748998923147e-02  3.6428026838323781e-02  -3.8203229072224891e-02  3.8651706729105111e-02  -3.7757885693662598e-02  3.5552807718295720e-02  -3.2113052586356113e-02  2.7558078783353611e-02  -2.2046074834379377e-02  1.5768465024169873e-02  -8.9432599201130746e-03  1.8074828685600496e-03  -1.8502731315508387e-03  9.1549817628239442e-03  -1.6141761749961004e-02  2.2567978254154596e-02  -2.8210461347228332e-02  3.2873257203736836e-02  -3.6394434132835114e-02  3.8651706729610436e-02  -3.9566682853600543e-02  3.9107586077884546e-02  -3.7290359176029186e-02  3.4178110390451676e-02  -2.9878921741388866e-02  2.4542095498400654e-02  -1.8352969166803412e-02  1.1526479051100711e-02  -4.2996959167393520e-03  -3.0764080307346762e-03  1.0345674934271621e-02  -1.7255657160426204e-02  2.3566384325073651e-02  -2.9058697008083872e-02  3.3541857743076574e-02  -3.6860174967058484e-02  3.8898409892665228e-02  -3.9585778532476308e-02  3.8898409892576667e-02  -3.6860174966887746e-02  3.3541857742836870e-02  -2.9058697007793562e-02  2.3566384324754466e-02  -1.7255657160101516e-02  1.0345674933965604e-02  -3.0764080304710663e-03  -4.2996959169391089e-03  1.1526479051218870e-02  -1.8352969166827080e-02  2.4542095498321651e-02  -2.9878921741204784e-02  3.4178110390166806e-02  -3.7290359175653404e-02  3.9107586077434212e-02  -3.9566682853097127e-02  3.8651706729079471e-02  -3.6394434132304372e-02  3.2873257203234786e-02  -2.8210461346781564e-02  2.2567978253787174e-02  -1.6141761749692854e-02  9.1549817626701765e-03  -1.8502731315196629e-03  1.8288058303367687e-03  -9.0487633097885208e-03  1.5954478826171872e-02  -2.2306132289405232e-02  2.7883143721788694e-02  -3.2491833905471577e-02  3.5972150969353897e-02  -3.8203229072720273e-02  3.9107586077921912e-02  -3.8653814461901886e-02  3.6857672065928174e-02  -3.3781534844627363e-02  2.9532230644395255e-02  -2.4257329252393330e-02  1.8140017560323126e-02  -1.1392737819453852e-02  4.2498099172095828e-03  3.0407061117952777e-03  -1.0225624742043872e-02  1.7055427611046454e-02  -2.3292928819371672e-02  2.8721511947693599e-02  -3.3152652734991614e-02  3.6432466169523586e-02  -3.8447050624397523e-02  3.9126443445891182e-02  -3.8447050624295979e-02  3.6432466169327854e-02  -3.3152652734716709e-02  2.8721511947360206e-02  -2.3292928819003841e-02  1.7055427610670134e-02  -1.0225624741685733e-02  3.0407061114810711e-03  4.2498099174565927e-03  -1.1392737819613545e-02  1.8140017560380823e-02  -2.4257329252340181e-02  2.9532230644227938e-02  -3.3781534844349440e-02  3.6857672065550455e-02  -3.8653814461441546e-02  3.9107586077401904e-02  -3.8203229072167895e-02  3.5972150968798786e-02  -3.2491833904944346e-02  2.7883143721318813e-02  -2.2306132289018375e-02  1.5954478825889448e-02  -9.0487633096263901e-03  1.8288058303040395e-03  -1.7438269270946256e-03  8.6282953950625497e-03  -1.5213122756782519e-02  2.1269632348585851e-02  -2.6587494111398716e-02  3.0982029042953441e-02  -3.4300622980224460e-02  3.6428026838793467e-02  -3.7290359176108533e-02  3.6857672065971077e-02  -3.5144991190787768e-02  3.2211794051091265e-02  -2.8159944429400303e-02  2.3130154851078142e-02  -1.7297099899901629e-02  1.0863350096098056e-02  -4.0523370024609937e-03  -2.8994061330694719e-03  9.7504587309962532e-03  -1.6262896961486112e-02  2.2210556390225587e-02  -2.7386886242969127e-02  3.1612122524996060e-02  -3.4739530886468820e-02  3.6660502430595536e-02  -3.7308325496606391e-02  3.6660502430482342e-02  -3.4739530886250508e-02  3.1612122524688181e-02  -2.7386886242594794e-02  2.2210556389810981e-02  -1.6262896961059370e-02  9.7504587305859512e-03  -2.8994061327032882e-03  -4.0523370027574692e-03  1.0863350096303001e-02  -1.7297099899998544e-02  2.3130154851056947e-02  -2.8159944429257282e-02  3.2211794050830217e-02  -3.5144991190419125e-02  3.6857672065512707e-02  -3.7290359175584112e-02  3.6428026838231306e-02  -3.4300622979655859e-02  3.0982029042411038e-02  -2.6587494110913892e-02  2.1269632348186344e-02  -1.5213122756490914e-02  8.6282953948952027e-03  -1.7438269270607461e-03  1.5982878180326185e-03  -7.9081812054897071e-03  1.3943440928343391e-02  -1.9494475429326773e-02  2.4368508812455381e-02  -2.8396275584011508e-02  3.1437899027759612e-02  -3.3387748999355142e-02  3.4178110390576291e-02  -3.3781534844716909e-02  3.2211794051138783e-02  -2.9523401519726083e-02  2.5809719451521745e-02  -2.1199716457273008e-02  1.5853488726858333e-02  -9.9567001936468891e-03  3.7141347777480973e-03  2.6574153728516833e-03  -8.9366786651055713e-03  1.4905588407185644e-02  -2.0356855855304216e-02  2.5101168963292578e-02  -2.8973766835725188e-02  3.1840161565948294e-02  -3.3600808750071973e-02  3.4194564478496420e-02  -3.3600808749948002e-02  3.1840161565708965e-02  -2.8973766835387629e-02  2.5101168962880494e-02  -2.0356855854845538e-02  1.4905588406710336e-02  -8.9366786646438191e-03  2.6574153724336570e-03  3.7141347780950914e-03  -9.9567001938988282e-03  1.5853488726997256e-02  -2.1199716457288208e-02  2.5809719451409179e-02  -2.9523401519488537e-02  3.2211794050787751e-02  -3.3781534844269850e-02  3.4178110390057401e-02  -3.3387748998793390e-02  3.1437899027187202e-02  -2.8396275583462784e-02  2.4368508811963133e-02  -1.9494475428920178e-02  1.3943440928046627e-02  -7.9081812053192948e-03  1.5982878179981851e-03  -1.3972429371333953e-03  6.9134295919834488e-03  -1.2189527886893202e-02  1.7042310221549336e-02  -2.1303249575790821e-02  2.4824372103096896e-02  -2.7483396024861429e-02  2.9187978325960505e-02  -2.9878921741559306e-02  2.9532230644533069e-02  -2.8159944429497263e-02  2.5809719451571966e-02  -2.2563174041377847e-02  1.8533054074371485e-02  -1.3859317532006241e-02  8.7042740327121712e-03  -3.2469481290458525e-03  -2.3231378760402862e-03  7.8125456821576383e-03  -1.3030638741351255e-02  1.7796202709685426e-02  -2.1943738684311730e-02  2.5329210673297090e-02  -2.7835047698957918e-02  2.9374226820619895e-02  -2.9893295280717557e-02  2.9374226820486401e-02  -2.7835047698700315e-02  2.5329210672932475e-02  -2.1943738683865316e-02  1.7796202709186259e-02  -1.3030638740829928e-02  7.8125456816468906e-03  -2.3231378755719212e-03  -3.2469481294422455e-03  8.7042740330110814e-03  -1.3859317532188498e-02  1.8533054074425518e-02  -2.2563174041298865e-02  2.5809719451363289e-02  -2.8159944429169425e-02  2.9532230644104328e-02  -2.9878921741053555e-02  2.9187978325407014e-02  -2.7483396024293553e-02  2.4824372102549390e-02  -2.1303249575297736e-02  1.7042310221141242e-02  -1.2189527886594930e-02  6.9134295918121501e-03  -1.3972429370988221e-03  1.1476742720327778e-03  -5.6785867751478212e-03  1.0012294255873549e-02  -1.3998296315486903e-02  1.7498167438564031e-02  -2.0390364211501921e-02  2.2574446308000009e-02  -2.3974564637117689e-02  2.4542095498615395e-02  -2.4257329252577894e-02  2.3130154851223831e-02  -2.1199716457373095e-02  1.8533054074422250e-02  -1.5222775397369393e-02  1.1383839738654389e-02  -7.1495657184286136e-03  2.6670013658101404e-03  1.9081825802965632e-03  -6.4170988240039879e-03  1.0703161372680930e-02  -1.4617523479070660e-02  1.8024246815124746e-02  -2.0805022361210224e-02  2.2863279062441896e-02  -2.4127537565629426e-02  2.4553892567353665e-02  -2.4127537565487932e-02  2.2863279062167959e-02  -2.0805022360822163e-02  1.8024246814647975e-02  -1.4617523478535288e-02  1.0703161372118917e-02  -6.4170988234488529e-03  1.9081825797823844e-03  2.6670013662526302e-03  -7.1495657187723282e-03  1.1383839738879038e-02  -1.5222775397462390e-02  1.8533054074378864e-02  -2.1199716457196118e-02  2.3130154850923887e-02  -2.4257329252172666e-02  2.4542095498128861e-02  -2.3974564636579283e-02  2.2574446307443152e-02  -2.0390364210962256e-02  1.7498167438076466e-02  -1.3998296315082264e-02  1.0012294255577384e-02  -5.6785867749774704e-03  1.1476742719983104e-03  -8.5824891650271664e-04  4.2465367311213956e-03  -7.4873515604120151e-03  1.0468146872153136e-02  -1.3085405927698763e-02  1.5248236687202653e-02  -1.6881528317694048e-02  1.7928559675895267e-02  -1.8352969167058298e-02  1.8140017560550510e-02  -1.7297099900092514e-02  1.5853488727005448e-02  -1.3859317532105557e-02  1.1383839738703907e-02  -8.5130236793421500e-03  5.3465670888918539e-03  -1.9944347958439790e-03  -1.4269601479320641e-03  4.7987992759696389e-03  -8.0039850545531119e-03  1.0931207467504981e-02  -1.3478809612699708e-02  1.5558318064544427e-02  -1.7097515398743907e-02  1.8042948175584682e-02  -1.8361783283547640e-02  1.8042948175436474e-02  -1.7097515398456949e-02  1.5558318064137476e-02  -1.3478809612198463e-02  1.0931207466939964e-02  -8.0039850539571859e-03  4.7987992753777279e-03  -1.4269601473787849e-03  -1.9944347963263150e-03  5.3465670892753406e-03  -8.5130236796057326e-03  1.1383839738834564e-02  -1.3859317532097529e-02  1.5853488726861664e-02  -1.7297099899822792e-02  1.8140017560172299e-02  -1.8352969166595880e-02  1.7928559675377501e-02  -1.6881528317154147e-02  1.5248236686676606e-02  -1.3085405927221783e-02  1.0468146871756828e-02  -7.4873515601216268e-03  4.2465367309546496e-03  -8.5824891646891003e-04  5.3901809156682318e-04  -2.6670119730457182e-03  4.7023864619878293e-03  -6.5744574739308257e-03  8.2182120063335664e-03  -9.5765658877772844e-03  1.0602346198136336e-02  -1.1259929509950327e-02  1.1526479051390143e-02  -1.1392737819718016e-02  1.0863350096328384e-02  -9.9567001938358352e-03  8.7042740328554368e-03  -7.1495657185234769e-03  5.3465670889375457e-03  -3.3578926907928356e-03  1.2526052987441143e-03  8.9618250521870349e-04  -3.0138473989401535e-03  5.0268468558688790e-03  -6.8652731492758927e-03  8.4652811281175529e-03  -9.7713054514106286e-03  1.0737990279742527e-02  -1.1331764408444729e-02  1.1532007140251422e-02  -1.1331764408291745e-02  1.0737990279446165e-02  -9.7713054509901316e-03  8.4652811275986832e-03  -6.8652731486893628e-03  5.0268468552478688e-03  -3.0138473983198641e-03  8.9618250463468954e-04  1.2526052992591677e-03  -3.3578926912098904e-03  5.3465670892352980e-03  -7.1495657186877639e-03  8.7042740328808349e-03  -9.9567001937245665e-03  1.0863350096089795e-02  -1.1392737819369184e-02  1.1526479050954589e-02  -1.1259929509457133e-02  1.0602346197618533e-02  -9.5765658872701484e-03  8.2182120058726243e-03  -6.5744574735471352