<?xml version="1.0"?>
<VTKFile type="UnstructuredGrid"  version="0.1"  >
<UnstructuredGrid>
<Piece  NumberOfPoints="2601" NumberOfCells="5000">
<Points>
<DataArray  type="Float64"  NumberOfComponents="3"  format="ascii">-10 -10 0  -9.6 -10 0  -9.199999999999999 -10 0  -8.800000000000001 -10 0  -8.4 -10 0  -8 -10 0  -7.6 -10 0  -7.2 -10 0  -6.8 -10 0  -6.4 -10 0  -6 -10 0  -5.6 -10 0  -5.2 -10 0  -4.8 -10 0  -4.4 -10 0  -4 -10 0  -3.6 -10 0  -3.2 -10 0  -2.8 -10 0  -2.4 -10 0  -2 -10 0  -1.6 -10 0  -1.199999999999999 -10 0  -0.8000000000000007 -10 0  -0.4000000000000004 -10 0  0 -10 0  0.4000000000000004 -10 0  0.8000000000000007 -10 0  1.199999999999999 -10 0  1.6 -10 0  2 -10 0  2.4 -10 0  2.800000000000001 -10 0  3.199999999999999 -10 0  3.6 -10 0  4 -10 0  4.4 -10 0  4.800000000000001 -10 0  5.199999999999999 -10 0  5.6 -10 0  6 -10 0  6.399999999999999 -10 0  6.800000000000001 -10 0  7.199999999999999 -10 0  7.600000000000001 -10 0  8 -10 0  8.399999999999999 -10 0  8.800000000000001 -10 0  9.199999999999999 -10 0  9.600000000000001 -10 0  10 -10 0  -10 -9.6 0  -9.6 -9.6 0  -9.199999999999999 -9.6 0  -8.800000000000001 -9.6 0  -8.4 -9.6 0  -8 -9.6 0  -7.6 -9.6 0  -7.2 -9.6 0  -6.8 -9.6 0  -6.4 -9.6 0  -6 -9.6 0  -5.6 -9.6 0  -5.2 -9.6 0  -4.8 -9.6 0  -4.4 -9.6 0  -4 -9.6 0  -3.6 -9.6 0  -3.2 -9.6 0  -2.8 -9.6 0  -2.4 -9.6 0  -2 -9.6 0  -1.6 -9.6 0  -1.199999999999999 -9.6 0  -0.8000000000000007 -9.6 0  -0.4000000000000004 -9.6 0  0 -9.6 0  0.4000000000000004 -9.6 0  0.8000000000000007 -9.6 0  1.199999999999999 -9.6 0  1.6 -9.6 0  2 -9.6 0  2.4 -9.6 0  2.800000000000001 -9.6 0  3.199999999999999 -9.6 0  3.6 -9.6 0  4 -9.6 0  4.4 -9.6 0  4.800000000000001 -9.6 0  5.199999999999999 -9.6 0  5.6 -9.6 0  6 -9.6 0  6.399999999999999 -9.6 0  6.800000000000001 -9.6 0  7.199999999999999 -9.6 0  7.600000000000001 -9.6 0  8 -9.6 0  8.399999999999999 -9.6 0  8.800000000000001 -9.6 0  9.199999999999999 -9.6 0  9.600000000000001 -9.6 0  10 -9.6 0  -10 -9.199999999999999 0  -9.6 -9.199999999999999 0  -9.199999999999999 -9.199999999999999 0  -8.800000000000001 -9.199999999999999 0  -8.4 -9.199999999999999 0  -8 -9.199999999999999 0  -7.6 -9.199999999999999 0  -7.2 -9.199999999999999 0  -6.8 -9.199999999999999 0  -6.4 -9.199999999999999 0  -6 -9.199999999999999 0  -5.6 -9.199999999999999 0  -5.2 -9.199999999999999 0  -4.8 -9.199999999999999 0  -4.4 -9.199999999999999 0  -4 -9.199999999999999 0  -3.6 -9.199999999999999 0  -3.2 -9.199999999999999 0  -2.8 -9.199999999999999 0  -2.4 -9.199999999999999 0  -2 -9.199999999999999 0  -1.6 -9.199999999999999 0  -1.199999999999999 -9.199999999999999 0  -0.8000000000000007 -9.199999999999999 0  -0.4000000000000004 -9.199999999999999 0  0 -9.199999999999999 0  0.4000000000000004 -9.199999999999999 0  0.8000000000000007 -9.199999999999999 0  1.199999999999999 -9.199999999999999 0  1.6 -9.199999999999999 0  2 -9.199999999999999 0  2.4 -9.199999999999999 0  2.800000000000001 -9.199999999999999 0  3.199999999999999 -9.199999999999999 0  3.6 -9.199999999999999 0  4 -9.199999999999999 0  4.4 -9.199999999999999 0  4.800000000000001 -9.199999999999999 0  5.199999999999999 -9.199999999999999 0  5.6 -9.199999999999999 0  6 -9.199999999999999 0  6.399999999999999 -9.199999999999999 0  6.800000000000001 -9.199999999999999 0  7.199999999999999 -9.199999999999999 0  7.600000000000001 -9.199999999999999 0  8 -9.199999999999999 0  8.399999999999999 -9.199999999999999 0  8.800000000000001 -9.199999999999999 0  9.199999999999999 -9.199999999999999 0  9.600000000000001 -9.199999999999999 0  10 -9.199999999999999 0  -10 -8.800000000000001 0  -9.6 -8.800000000000001 0  -9.199999999999999 -8.800000000000001 0  -8.800000000000001 -8.800000000000001 0  -8.4 -8.800000000000001 0  -8 -8.800000000000001 0  -7.6 -8.800000000000001 0  -7.2 -8.800000000000001 0  -6.8 -8.800000000000001 0  -6.4 -8.800000000000001 0  -6 -8.800000000000001 0  -5.6 -8.800000000000001 0  -5.2 -8.800000000000001 0  -4.8 -8.800000000000001 0  -4.4 -8.800000000000001 0  -4 -8.800000000000001 0  -3.6 -8.800000000000001 0  -3.2 -8.800000000000001 0  -2.8 -8.800000000000001 0  -2.4 -8.800000000000001 0  -2 -8.800000000000001 0  -1.6 -8.800000000000001 0  -1.199999999999999 -8.800000000000001 0  -0.8000000000000007 -8.800000000000001 0  -0.4000000000000004 -8.800000000000001 0  0 -8.800000000000001 0  0.4000000000000004 -8.800000000000001 0  0.8000000000000007 -8.800000000000001 0  1.199999999999999 -8.800000000000001 0  1.6 -8.800000000000001 0  2 -8.800000000000001 0  2.4 -8.800000000000001 0  2.800000000000001 -8.800000000000001 0  3.199999999999999 -8.800000000000001 0  3.6 -8.800000000000001 0  4 -8.800000000000001 0  4.4 -8.800000000000001 0  4.800000000000001 -8.800000000000001 0  5.199999999999999 -8.800000000000001 0  5.6 -8.800000000000001 0  6 -8.800000000000001 0  6.399999999999999 -8.800000000000001 0  6.800000000000001 -8.800000000000001 0  7.199999999999999 -8.800000000000001 0  7.600000000000001 -8.800000000000001 0  8 -8.800000000000001 0  8.399999999999999 -8.800000000000001 0  8.800000000000001 -8.800000000000001 0  9.199999999999999 -8.800000000000001 0  9.600000000000001 -8.800000000000001 0  10 -8.800000000000001 0  -10 -8.4 0  -9.6 -8.4 0  -9.199999999999999 -8.4 0  -8.800000000000001 -8.4 0  -8.4 -8.4 0  -8 -8.4 0  -7.6 -8.4 0  -7.2 -8.4 0  -6.8 -8.4 0  -6.4 -8.4 0  -6 -8.4 0  -5.6 -8.4 0  -5.2 -8.4 0  -4.8 -8.4 0  -4.4 -8.4 0  -4 -8.4 0  -3.6 -8.4 0  -3.2 -8.4 0  -2.8 -8.4 0  -2.4 -8.4 0  -2 -8.4 0  -1.6 -8.4 0  -1.199999999999999 -8.4 0  -0.8000000000000007 -8.4 0  -0.4000000000000004 -8.4 0  0 -8.4 0  0.4000000000000004 -8.4 0  0.8000000000000007 -8.4 0  1.199999999999999 -8.4 0  1.6 -8.4 0  2 -8.4 0  2.4 -8.4 0  2.800000000000001 -8.4 0  3.199999999999999 -8.4 0  3.6 -8.4 0  4 -8.4 0  4.4 -8.4 0  4.800000000000001 -8.4 0  5.199999999999999 -8.4 0  5.6 -8.4 0  6 -8.4 0  6.399999999999999 -8.4 0  6.800000000000001 -8.4 0  7.199999999999999 -8.4 0  7.600000000000001 -8.4 0  8 -8.4 0  8.399999999999999 -8.4 0  8.800000000000001 -8.4 0  9.199999999999999 -8.4 0  9.600000000000001 -8.4 0  10 -8.4 0  -10 -8 0  -9.6 -8 0  -9.199999999999999 -8 0  -8.800000000000001 -8 0  -8.4 -8 0  -8 -8 0  -7.6 -8 0  -7.2 -8 0  -6.8 -8 0  -6.4 -8 0  -6 -8 0  -5.6 -8 0  -5.2 -8 0  -4.8 -8 0  -4.4 -8 0  -4 -8 0  -3.6 -8 0  -3.2 -8 0  -2.8 -8 0  -2.4 -8 0  -2 -8 0  -1.6 -8 0  -1.199999999999999 -8 0  -0.8000000000000007 -8 0  -0.4000000000000004 -8 0  0 -8 0  0.4000000000000004 -8 0  0.8000000000000007 -8 0  1.199999999999999 -8 0  1.6 -8 0  2 -8 0  2.4 -8 0  2.800000000000001 -8 0  3.199999999999999 -8 0  3.6 -8 0  4 -8 0  4.4 -8 0  4.800000000000001 -8 0  5.199999999999999 -8 0  5.6 -8 0  6 -8 0  6.399999999999999 -8 0  6.800000000000001 -8 0  7.199999999999999 -8 0  7.600000000000001 -8 0  8 -8 0  8.399999999999999 -8 0  8.800000000000001 -8 0  9.199999999999999 -8 0  9.600000000000001 -8 0  10 -8 0  -10 -7.6 0  -9.6 -7.6 0  -9.199999999999999 -7.6 0  -8.800000000000001 -7.6 0  -8.4 -7.6 0  -8 -7.6 0  -7.6 -7.6 0  -7.2 -7.6 0  -6.8 -7.6 0  -6.4 -7.6 0  -6 -7.6 0  -5.6 -7.6 0  -5.2 -7.6 0  -4.8 -7.6 0  -4.4 -7.6 0  -4 -7.6 0  -3.6 -7.6 0  -3.2 -7.6 0  -2.8 -7.6 0  -2.4 -7.6 0  -2 -7.6 0  -1.6 -7.6 0  -1.199999999999999 -7.6 0  -0.8000000000000007 -7.6 0  -0.4000000000000004 -7.6 0  0 -7.6 0  0.4000000000000004 -7.6 0  0.8000000000000007 -7.6 0  1.199999999999999 -7.6 0  1.6 -7.6 0  2 -7.6 0  2.4 -7.6 0  2.800000000000001 -7.6 0  3.199999999999999 -7.6 0  3.6 -7.6 0  4 -7.6 0  4.4 -7.6 0  4.800000000000001 -7.6 0  5.199999999999999 -7.6 0  5.6 -7.6 0  6 -7.6 0  6.399999999999999 -7.6 0  6.800000000000001 -7.6 0  7.199999999999999 -7.6 0  7.600000000000001 -7.6 0  8 -7.6 0  8.399999999999999 -7.6 0  8.800000000000001 -7.6 0  9.199999999999999 -7.6 0  9.600000000000001 -7.6 0  10 -7.6 0  -10 -7.2 0  -9.6 -7.2 0  -9.199999999999999 -7.2 0  -8.800000000000001 -7.2 0  -8.4 -7.2 0  -8 -7.2 0  -7.6 -7.2 0  -7.2 -7.2 0  -6.8 -7.2 0  -6.4 -7.2 0  -6 -7.2 0  -5.6 -7.2 0  -5.2 -7.2 0  -4.8 -7.2 0  -4.4 -7.2 0  -4 -7.2 0  -3.6 -7.2 0  -3.2 -7.2 0  -2.8 -7.2 0  -2.4 -7.2 0  -2 -7.2 0  -1.6 -7.2 0  -1.199999999999999 -7.2 0  -0.8000000000000007 -7.2 0  -0.4000000000000004 -7.2 0  0 -7.2 0  0.4000000000000004 -7.2 0  0.8000000000000007 -7.2 0  1.199999999999999 -7.2 0  1.6 -7.2 0  2 -7.2 0  2.4 -7.2 0  2.800000000000001 -7.2 0  3.199999999999999 -7.2 0  3.6 -7.2 0  4 -7.2 0  4.4 -7.2 0  4.800000000000001 -7.2 0  5.199999999999999 -7.2 0  5.6 -7.2 0  6 -7.2 0  6.399999999999999 -7.2 0  6.800000000000001 -7.2 0  7.199999999999999 -7.2 0  7.600000000000001 -7.2 0  8 -7.2 0  8.399999999999999 -7.2 0  8.800000000000001 -7.2 0  9.199999999999999 -7.2 0  9.600000000000001 -7.2 0  10 -7.2 0  -10 -6.8 0  -9.6 -6.8 0  -9.199999999999999 -6.8 0  -8.800000000000001 -6.8 0  -8.4 -6.8 0  -8 -6.8 0  -7.6 -6.8 0  -7.2 -6.8 0  -6.8 -6.8 0  -6.4 -6.8 0  -6 -6.8 0  -5.6 -6.8 0  -5.2 -6.8 0  -4.8 -6.8 0  -4.4 -6.8 0  -4 -6.8 0  -3.6 -6.8 0  -3.2 -6.8 0  -2.8 -6.8 0  -2.4 -6.8 0  -2 -6.8 0  -1.6 -6.8 0  -1.199999999999999 -6.8 0  -0.8000000000000007 -6.8 0  -0.4000000000000004 -6.8 0  0 -6.8 0  0.4000000000000004 -6.8 0  0.8000000000000007 -6.8 0  1.199999999999999 -6.8 0  1.6 -6.8 0  2 -6.8 0  2.4 -6.8 0  2.800000000000001 -6.8 0  3.199999999999999 -6.8 0  3.6 -6.8 0  4 -6.8 0  4.4 -6.8 0  4.800000000000001 -6.8 0  5.199999999999999 -6.8 0  5.6 -6.8 0  6 -6.8 0  6.399999999999999 -6.8 0  6.800000000000001 -6.8 0  7.199999999999999 -6.8 0  7.600000000000001 -6.8 0  8 -6.8 0  8.399999999999999 -6.8 0  8.800000000000001 -6.8 0  9.199999999999999 -6.8 0  9.600000000000001 -6.8 0  10 -6.8 0  -10 -6.4 0  -9.6 -6.4 0  -9.199999999999999 -6.4 0  -8.800000000000001 -6.4 0  -8.4 -6.4 0  -8 -6.4 0  -7.6 -6.4 0  -7.2 -6.4 0  -6.8 -6.4 0  -6.4 -6.4 0  -6 -6.4 0  -5.6 -6.4 0  -5.2 -6.4 0  -4.8 -6.4 0  -4.4 -6.4 0  -4 -6.4 0  -3.6 -6.4 0  -3.2 -6.4 0  -2.8 -6.4 0  -2.4 -6.4 0  -2 -6.4 0  -1.6 -6.4 0  -1.199999999999999 -6.4 0  -0.8000000000000007 -6.4 0  -0.4000000000000004 -6.4 0  0 -6.4 0
[...]
<PointData  Scalars="f_368"> 
<DataArray  type="Float64"  Name="f_368"  format="ascii">-1.7151670002185792e-04  1.1676985640794060e-03  -1.9937221747936633e-03  2.6230976972039769e-03  -3.0001645862132807e-03  3.0892240279013989e-03  -2.8818023453735290e-03  2.3978248479438647e-03  -1.6837452419134738e-03  8.0809492637987426e-04  1.4509164610287319e-04  -1.0843405891794269e-03  1.9195164776224644e-03  -2.5704718749371708e-03  2.9747383544308282e-03  -3.0935209346400856e-03  2.9154207006640968e-03  -2.4575284147059333e-03  1.7637842143198728e-03  -9.0076084688621915e-04  -4.8724879776567498e-05  9.9355935963820743e-04  -1.8430755353713957e-03  2.5157533262525232e-03  -2.9470422648443192e-03  3.0955557097819774e-03  -2.9470422648442069e-03  2.5157533262522291e-03  -1.8430755353711565e-03  9.9355935963789735e-04  -4.8724879776092475e-05  -9.0076084688670715e-04  1.7637842143203527e-03  -2.4575284147063180e-03  2.9154207006641501e-03  -3.0935209346395977e-03  2.9747383544300120e-03  -2.5704718749358780e-03  1.9195164776208971e-03  -1.0843405891780092e-03  1.4509164610154962e-04  8.0809492638064839e-04  -1.6837452419134896e-03  2.3978248479429535e-03  -2.8818023453720618e-03  3.0892240278991008e-03  -3.0001645862108902e-03  2.6230976972015578e-03  -1.9937221747918315e-03  1.1676985640782349e-03  -1.7151670002174774e-04  1.1676985640792807e-03  -5.6994614449406254e-03  9.6842898661855560e-03  -1.2738204877784461e-02  1.4569020181579684e-02  -1.5001461498536057e-02  1.3994199829705043e-02  -1.1643972852038035e-02  8.1763588233388033e-03  -3.9241491726200138e-03  -7.0458033660332367e-04  5.2656274472219801e-03  -9.3212895073248158e-03  1.2482366117580350e-02  -1.4445507177208472e-02  1.5022322193553393e-02  -1.4157457523147995e-02  1.1933906984001099e-02  -8.5650464374338667e-03  4.3741569230522194e-03  2.3659850160111936e-04  -4.8247671082614482e-03  8.9500646678415917e-03  -1.2216625196749285e-02  1.4310988097392159e-02  -1.5032177582967458e-02  1.4310988097391527e-02  -1.2216625196748218e-02  8.9500646678402178e-03  -4.8247671082598219e-03  2.3659850159909979e-04  4.3741569230542855e-03  -8.5650464374358980e-03  1.1933906984002360e-02  -1.4157457523147796e-02  1.5022322193551159e-02  -1.4445507177204156e-02  1.2482366117574082e-02  -9.3212895073175785e-03  5.2656274472146509e-03  -7.0458033659710837e-04  -3.9241491726238397e-03  8.1763588233388987e-03  -1.1643972852033977e-02  1.3994199829697074e-02  -1.5001461498525364e-02  1.4569020181567208e-02  -1.2738204877772703e-02  9.6842898661760012e-03  -5.6994614449350665e-03  1.1676985640780982e-03  -1.9937221747927296e-03  9.6842898661819651e-03  -1.6447114006063846e-02  2.1631632283530652e-02  -2.4740091124179343e-02  2.5474247032181433e-02  -2.3763726357255946e-02  1.9772738864101816e-02  -1.3884320673190741e-02  6.6635810979072257e-03  1.1965248716274970e-03  -8.9416940099171487e-03  1.5828659855667129e-02  -2.1196518272452090e-02  2.4530148632290819e-02  -2.5509644528348446e-02  2.4041010722203444e-02  -2.0265180920496291e-02  1.4544491419340401e-02  -7.4279090097883853e-03  -4.0164978307302083e-04  8.1928526617496417e-03  -1.5198050012858493e-02  2.0745019373151742e-02  -2.4301471503264862e-02  2.5526128321200804e-02  -2.4301471503263970e-02  2.0745019373150219e-02  -1.5198050012856618e-02  8.1928526617474698e-03  -4.0164978307042970e-04  -7.4279090097912554e-03  1.4544491419342888e-02  -2.0265180920497533e-02  2.4041010722202421e-02  -2.5509644528344280e-02  2.4530148632283241e-02  -2.1196518272441321e-02  1.5828659855654202e-02  -8.9416940099044072e-03  1.1965248716166818e-03  6.6635810979133311e-03  -1.3884320673190067e-02  1.9772738864093607e-02  -2.3763726357240961e-02  2.5474247032161362e-02  -2.4740091124156764e-02  2.1631632283508902e-02  -1.6447114006046665e-02  9.6842898661714822e-03  -1.9937221747907286e-03  2.6230976972012716e-03  -1.2738204877771503e-02  2.1631632283516743e-02  -2.8449468929685338e-02  3.2537223959238443e-02  -3.3502565264079909e-02  3.1252867433295202e-02  -2.6004053425745154e-02  1.8259856194698578e-02  -8.7634718707891215e-03  -1.5737632477976057e-03  1.1759829585226622e-02  -2.0817222697228622e-02  2.7876757527749419e-02  -3.2260976715671387e-02  3.3549159017577428e-02  -3.1617689855972721e-02  2.6651920485474948e-02  -1.9128378351789974e-02  9.7690363280018202e-03  5.2797035951773503e-04  -1.0774530809908690e-02  1.9987378182842516e-02  -2.7282443732146687e-02  3.1959691235049992e-02  -3.3570291496228477e-02  3.1959691235049117e-02  -2.7282443732145098e-02  1.9987378182840670e-02  -1.0774530809906559e-02  5.2797035951563905e-04  9.7690363280038117e-03  -1.9128378351791320e-02  2.6651920485474340e-02  -3.1617689855969293e-02  3.3549159017570385e-02  -3.2260976715660097e-02  2.7876757527733800e-02  -2.0817222697210844e-02  1.1759829585208888e-02  -1.5737632477836308e-03  -8.7634718707962581e-03  1.8259856194696014e-02  -2.6004053425731789e-02  3.1252867433272422e-02  -3.3502565264050072e-02  3.2537223959205629e-02  -2.8449468929654054e-02  2.1631632283491780e-02  -1.2738204877756511e-02  2.6230976971980033e-03  -3.0001645862070998e-03  1.4569020181550407e-02  -2.4740091124139330e-02  3.2537223959206996e-02  -3.7212065058486080e-02  3.8315944078171134e-02  -3.5742919302560940e-02  2.9739924254444727e-02  -2.0883056609196156e-02  1.0022284435640790e-02  1.8001259541479387e-03  -1.3449633543825227e-02  2.3808299152478698e-02  -3.1882066806249054e-02  3.6896154966172157e-02  -3.8369403912531713e-02  3.6160445285615135e-02  -3.0481263996608887e-02  2.1876851892778024e-02  -1.1172906387352074e-02  -6.0340648209035214e-04  1.2322020623053464e-02  -2.2858411385261918e-02  3.1201504170574670e-02  -3.6550695693977418e-02  3.8392678285673443e-02  -3.6550695693976724e-02  3.1201504170573574e-02  -2.2858411385260877e-02  1.2322020623052659e-02  -6.0340648208985753e-04  -1.1172906387351774e-02  2.1876851892776498e-02  -3.0481263996605033e-02  3.6160445285608127e-02  -3.8369403912520798e-02  3.6896154966156433e-02  -3.1882066806229195e-02  2.3808299152456511e-02  -1.3449633543804244e-02  1.8001259541318593e-03  1.0022284435647481e-02  -2.0883056609190771e-02  2.9739924254425849e-02  -3.5742919302529944e-02  3.8315944078131804e-02  -3.7212065058442954e-02  3.2537223959166556e-02  -2.4740091124107043e-02  1.4569020181530813e-02  -3.0001645862031919e-03  3.0892240278904315e-03  -1.5001461498483949e-02  2.5474247032103148e-02  -3.3502565263999411e-02  3.8315944078117135e-02  -3.9452440589830745e-02  3.6802983027984584e-02  -3.0621833858315076e-02  2.1502181713179198e-02  -1.0319208660786287e-02  -1.8539023558960602e-03  1.3848959081363384e-02  -2.4514866660857729e-02  3.2828091129534019e-02  -3.7990879303379362e-02  3.9507810006376230e-02  -3.7233331302714820e-02  3.1385722899021862e-02  -2.2526144874850561e-02  1.1504784180822894e-02  6.2073256720934810e-04  -1.2686830479443212e-02  2.3535642836116914e-02  -3.2126118379601540e-02  3.7633918215321714e-02  -3.9530516950952860e-02  3.7633918215321284e-02  -3.2126118379601040e-02  2.3535642836116775e-02  -1.2686830479444182e-02  6.2073256721117986e-04  1.1504784180819745e-02  -2.2526144874845368e-02  3.1385722899014035e-02  -3.7233331302703669e-02  3.9507810006361013e-02  -3.7990879303359218e-02  3.2828091129509837e-02  -2.4514866660831827e-02  1.3848959081339754e-02  -1.8539023558793999e-03  -1.0319208660791883e-02  2.1502181713170001e-02  -3.0621833858290499e-02  3.6802983027946039e-02  -3.9452440589782756e-02  3.8315944078065364e-02  -3.3502565263951158e-02  2.5474247032064825e-02  -1.5001461498461061e-02  3.0892240278855890e-03  -2.8818023453567741e-03  1.3994199829624566e-02  -2.3763726357129634e-02  3.1252867433151740e-02  -3.5742919302434208e-02  3.6802983027908048e-02  -3.4331327255036063e-02  2.8565152148789644e-02  -2.0057822323759616e-02  9.6257571237589185e-03  1.7299229103032985e-03  -1.2919472824312562e-02  2.2869102436353088e-02  -3.0624021616623486e-02  3.5440063058144303e-02  -3.6855090586591928e-02  3.4733341337528735e-02  -2.9278447758209095e-02  2.1013891035585097e-02  -1.0732762765618941e-02  -5.7834341397226265e-04  1.1834006438186375e-02  -2.1954133751467861e-02  2.9967604258474296e-02  -3.5105453526598454e-02  3.6874660137740004e-02  -3.5105453526598697e-02  2.9967604258474455e-02  -2.1954133751469089e-02  1.1834006438188747e-02  -5.7834341397594027e-04  -1.0732762765613463e-02  2.1013891035577055e-02  -2.9278447758197802e-02  3.4733341337513615e-02  -3.6855090586572402e-02  3.5440063058119940e-02  -3.0624021616595717e-02  2.2869102436324833e-02  -1.2919472824287783e-02  1.7299229102867339e-03  9.6257571237626256e-03  -2.0057822323747570e-02  2.8565152148760597e-02  -3.4331327254992432e-02  3.6802983027854126e-02  -3.5742919302376885e-02  3.1252867433098415e-02  -2.3763726357087487e-02  1.3994199829599272e-02  -2.8818023453515895e-03  2.3978248479206168e-03  -1.1643972851926159e-02  1.9772738863922099e-02  -2.6004053425530818e-02  2.9739924254235547e-02  -3.0621833858149337e-02  2.8565152148698082e-02  -2.3767259427408649e-02  1.6688601529072099e-02  -8.0084973539787368e-03  -1.4400581965479601e-03  1.0750337542905773e-02  -1.9028897035587633e-02  2.5481315668171311e-02  -2.9488427982730027e-02  3.0665736096937422e-02  -2.8900300498471566e-02  2.4361570797579776e-02  -1.7485118512571698e-02  8.9308341778656253e-03  4.8039887856681944e-04  -9.8454768760669158e-03  1.8265735194818892e-02  -2.4933180078225699e-02  2.9208018673114556e-02  -3.0680048814075229e-02  2.9208018673114636e-02  -2.4933180078226331e-02  1.8265735194820287e-02  -9.8454768760694103e-03  4.8039887857084400e-04  8.9308341778593075e-03  -1.7485118512562112e-02  2.4361570797566356e-02  -2.8900300498453692e-02  3.0665736096914809e-02  -2.9488427982702917e-02  2.5481315668141508e-02  -1.9028897035558347e-02  1.0750337542880878e-02  -1.4400581965321394e-03  -8.0084973539813146e-03  1.6688601529058416e-02  -2.3767259427378069e-02  2.8565152148652649e-02  -3.0621833858093975e-02  2.9739924254176507e-02  -2.6004053425476108e-02  1.9772738863878626e-02  -1.1643972851900131e-02  2.3978248479151038e-03  -1.6837452418836027e-03  8.1763588231953278e-03  -1.3884320672957111e-02  1.8259856194412886e-02  -2.0883056608903498e-02  2.1502181712923448e-02  -2.0057822323575798e-02  1.6688601528979902e-02  -1.1717867802707839e-02  5.6226584121083362e-03  1.0120865728169396e-03  -7.5496639945450078e-03  1.3362712161153038e-02  -1.7893415505378891e-02  2.0707031698009033e-02  -2.1533605095630425e-02  2.0293864697042103e-02  -1.7106822880044788e-02  1.2278347339311706e-02  -6.2718043047627643e-03  -3.3640886574939590e-04  6.9121742208459744e-03  -1.2824499546769057e-02  1.7506062556207982e-02  -2.0507644409894155e-02  2.1541230580317556e-02  -2.0507644409894218e-02  1.7506062556207846e-02  -1.2824499546769501e-02  6.9121742208470673e-03  -3.3640886575201772e-04  -6.2718043047575991e-03  1.2278347339303247e-02  -1.7106822880031874e-02  2.0293864697024201e-02  -2.1533605095607526e-02  2.0707031697981982e-02  -1.7893415505349553e-02  1.3362712161124432e-02  -7.5496639945209941e-03  1.0120865728016637e-03  5.6226584121108515e-03  -1.1717867802695184e-02  1.6688601528951189e-02  -2.0057822323533370e-02  2.1502181712871236e-02  -2.0883056608847806e-02  1.8259856194360689e-02  -1.3884320672915779e-02  8.1763588231703044e-03  -1.6837452418785924e-03  8.0809492634414698e-04  -3.9241491724475710e-03  6.6635810976246714e-03  -8.7634718704387750e-03  1.0022284435273964e-02  -1.0319208660452370e-02  9.6257571234971088e-03  -8.0084973538109387e-03  5.6226584120351673e-03  -2.6972265644575081e-03  -4.8703783561007685e-04  3.6245507286929331e-03  -6.4142340900528051e-03  8.5884094095533669e-03  -9.9384819438037252e-03  1.0334951558401417e-02  -9.7398311103433707e-03  8.2102823610658449e-03  -5.8931223176637562e-03  3.0107287669645460e-03  1.6030140968992772e-04  -3.3156928225555621e-03  6.1526846315295633e-03  -8.3990758052274687e-03  9.8393369630681501e-03  -1.0335284834418559e-02  9.8393369630668352e-03  -8.3990758052253141e-03  6.1526846315268216e-03  -3.3156928225530494e-03  1.6030140968877735e-04  3.0107287669634340e-03  -5.8931223176587723e-03  8.2102823610564236e-03  -9.7398311103288251e-03  1.0334951558381548e-02  -9.9384819437799542e-03  8.5884094095269922e-03  -6.4142340900263731e-03  3.6245507286701254e-03  -4.8703783559474450e-04  -2.6972265644617370e-03  5.6226584120258960e-03  -8.0084973537878461e-03  9.6257571234615088e-03  -1.0319208660408072e-02  1.0022284435226169e-02  -8.7634718703939428e-03  6.6635810975884903e-03  -3.9241491724255001e-03  8.0809492633950118e-04  1.4509164614354196e-04  -7.0458033679963322e-04  1.1965248719500998e-03  -1.5737632481990047e-03  1.8001259545712242e-03  -1.8539023562862073e-03  1.7299229106166449e-03  -1.4400581967603499e-03  1.0120865729281545e-03  -4.8703783564375044e-04  -8.4734112533287504e-05  6.4837476503339347e-04  -1.1497875709257535e-03  1.5408240475711038e-03  -1.7839076566569477e-03  1.8556470976565931e-03  -1.7490908874505267e-03  1.4744049910592140e-03  -1.0579064714944233e-03  5.3954414801105478e-04  3.0933124487773114e-05  -5.9875318965117697e-04  1.1093834103752874e-03  -1.5137732316964625e-03  1.7730715665504569e-03  -1.8623643142501147e-03  1.7730715665529911e-03  -1.5137732317016658e-03  1.1093834103818683e-03  -5.9875318965837878e-04  3.0933124494566732e-05  5.3954414800628961e-04  -1.0579064714927948e-03  1.4744049910619533e-03  -1.7490908874585292e-03  1.8556470976696003e-03  -1.7839076566745573e-03  1.5408240475920394e-03  -1.1497875709483955e-03  6.4837476505453173e-04  -8.4734112549362427e-05  -4.8703783563596223e-04  1.0120865729310766e-03  -1.4400581967747746e-03  1.7299229106415286e-03  -1.8539023563187956e-03  1.8001259546072919e-03  -1.5737632482335270e-03  1.1965248719781106e-03  -7.0458033681693795e-04  1.4509164614705044e-04  -1.0843405892235450e-03  5.2656274474353060e-03  -8.9416940102670373e-03  1.1759829585660722e-02  -1.3449633544281298e-02  1.3848959081780536e-02  -1.2919472824642749e-02  1.0750337543122905e-02  -7.5496639946487842e-03  3.6245507287095014e-03  6.4837476505575416e-04  -4.8590888034547716e-03  8.6035126256974008e-03  -1.1522287776017130e-02  1.3335265016614998e-02  -1.3868396406869057e-02  1.3070448369936392e-02  -1.1017929844994149e-02  7.9077604056017724e-03  -4.0383800220868075e-03  -2.1888802727116147e-04  4.4554733633371188e-03  -8.2647734831938179e-03  1.1281182885650512e-02  -1.3215188990913245e-02  1.3881164758727346e-02  -1.3215188990917075e-02  1.1281182885657791e-02  -8.2647734832041030e-03  4.4554733633494371e-03  -2.1888802728391586e-04  -4.0383800220744528e-03  7.9077604055914665e-03  -1.1017929844987241e-02  1.3070448369934247e-02  -1.3868396406872478e-02  1.3335265016623590e-02  -1.1522287776031214e-02  8.6035126257153188e-03  -4.8590888034742343e-03  6.4837476507372178e-04  3.6245507286965413e-03  -7.5496639946433823e-03  1.0750337543126222e-02  -1.2919472824654759e-02  1.3848959081799273e-02  -1.3449633544303605e-02  1.1759829585682856e-02  -8.9416940102855502e-03  5.2656274474467491e-03  -1.0843405892261358e-03  1.9195164776685705e-03  -9.3212895075473912e-03  1.5828659856030453e-02  -2.0817222697676139e-02  2.3808299152942226e-02  -2.4514866661271159e-02  2.2869102436664030e-02  -1.9028897035767291e-02  1.3362712161201808e-02  -6.4142340899991110e-03  -1.1497875710290606e-03  8.6035126257835749e-03  -1.5231657521663387e-02  2.0398134774670881e-02  -2.3607098000030403e-02  2.4550533694754469e-02  -2.3137831038302893e-02  1.9504489850432658e-02  -1.3999128671260578e-02  7.1500376311431696e-03  3.8551556710778864e-04  -7.8843621988494862e-03  1.4626837939617866e-02  -1.9965855244120916e-02  2.3389012112466322e-02  -2.4567774724874057e-02  2.3389012112470704e-02  -1.9965855244129763e-02  1.4626837939630611e-02  -7.8843621988655289e-03  3.8551556712607289e-04  7.1500376311235776e-03  -1.3999128671241135e-02  1.9504489850415221e-02  -2.3137831038289230e-02  2.4550533694746062e-02  -2.3607098000028699e-02  2.0398134774676436e-02  -1.5231657521675797e-02  8.6035126258009256e-03  -1.1497875710487914e-03  -6.4142340899804801e-03  1.3362712161187063e-02  -1.9028897035758576e-02  2.2869102436661834e-02  -2.4514866661274715e-02  2.3808299152949741e-02  -2.0817222697685316e-02  1.5828659856039033e-02  -9.3212895075528296e-03  1.9195164776697384e-03  -2.5704718749837074e-03  1.2482366117805286e-02  -2.1196518272817017e-02  2.7876757528192870e-02  -3.1882066806697813e-02  3.2828091129916692e-02  -3.0624021616883278e-02  2.5481315668278010e-02  -1.7893415505332647e-02  8.5884094093854647e-03  1.5408240478038337e-03  -1.1522287776242890e-02  2.0398134774814954e-02  -2.7316584566644302e-02  3.1613667135794644e-02  -3.2876949096000758e-02  3.0985124903432699e-02  -2.6119671380655338e-02  1.8747444564519867e-02  -9.5758867001897920e-03  -5.1485961302249247e-04  1.0556416012699450e-02  -1.9585105521708598e-02  2.6734442036742842e-02  -3.1318294237276466e-02  3.2896740693971645e-02  -3.1318294237280615e-02  2.6734442036751332e-02  -1.9585105521721647e-02  1.0556416012716736e-02  -5.1485961304396834e-04  -9.5758867001645414e-03  1.8747444564492403e-02  -2.6119671380627603e-02  3.0985124903406963e-02  -3.2876949095979831e-02  3.1613667135781252e-02  -2.7316584566640285e-02  2.0398134774821018e-02  -1.1522287776257793e-02  1.5408240478254763e-03  8.5884094093606356e-03  -1.7893415505308503e-02  2.5481315668256892e-02  -3.0624021616867458e-02  3.2828091129905868e-02  -3.1882066806691568e-02  2.7876757528190119e-02  -2.1196518272816458e-02  1.2482366117805292e-02  -2.5704718749839008e-03  2.9747383544771783e-03  -1.4445507177430766e-02  2.4530148632648584e-02  -3.2260976716098871e-02  3.6896154966591058e-02  -3.7990879303713435e-02  3.5440063058333367e-02  -2.9488427982741244e-02  2.0707031697843031e-02  -9.9384819434941429e-03  -1.7839076570489744e-03  1.3335265017012378e-02  -2.3607098000354026e-02  3.1613667135977089e-02  -3.6586585027898903e-02  3.8048563455652634e-02  -3.5859229190007232e-02  3.0228609276232936e-02  -2.1696988926921019e-02  1.1083072530433719e-02  5.9457916098926741e-04  -1.2215296978835017e-02  2.2663855471640199e-02  -3.0937506381270654e-02  3.6242219685540422e-02  -3.8068893880404936e-02  3.6242219685543170e-02  -3.0937506381276896e-02  2.2663855471650653e-02  -1.2215296978850822e-02  5.9457916101131162e-04  1.1083072530405498e-02  -2.1696988926887366e-02  3.0228609276196288e-02  -3.5859229189970455e-02  3.8048563455620014e-02  -3.6586585027874124e-02  3.1613667135963683e-02  -2.3607098000353502e-02  1.3335265017024487e-02  -1.7839076570718207e-03  -9.9384819434643768e-03  2.0707031697810480e-02  -2.9488427982709640e-02  3.5440063058305271e-02  -3.7990879303690377e-02  3.6896154966573266e-02  -3.2260976716086381e-02  2.4530148632640532e-02  -1.4445507177426518e-02  2.9747383544762216e-03  -3.0935209346854274e-03  1.5022322193771353e-02  -2.5509644528695748e-02  3.3549159017984477e-02  -3.8369403912915795e-02  3.9507810006656777e-02  -3.6855090586705212e-02  3.0665736096848657e-02  -2.1533605095340306e-02  1.0334951557946124e-02  1.8556470982121352e-03  -1.3868396407443119e-02  2.4550533695262753e-02  -3.2876949096372204e-02  3.8048563455842878e-02  -3.9569021426697937e-02  3.7292337937673198e-02  -3.1436922931319805e-02  2.2564635568809926e-02  -1.1526875385262246e-02  -6.1711799986405443e-04  1.2701916865823533e-02  -2.3567753412545637e-02  3.2171828605434757e-02  -3.7688397620006690e-02  3.9588024458568315e-02  -3.7688397620007252e-02  3.2171828605436777e-02  -2.3567753412551240e-02  1.2701916865834634e-02  -6.1711799988301409e-04  -1.1526875385234326e-02  2.2564635568773719e-02  -3.1436922931277402e-02  3.7292337937628595e-02  -3.9569021426655561e-02  3.8048563455808301e-02  -3.2876949096349965e-02  2.4550533695255981e-02  -1.3868396407451926e-02  1.8556470982347261e-03  1.0334951557913467e-02  -2.1533605095302326e-02  3.0665736096809448e-02  -3.6855090586668672e-02  3.9507810006624934e-02  -3.8369403912889899e-02  3.3549159017965069e