<?xml version="1.0"?>
<VTKFile type="UnstructuredGrid"  version="0.1"  >
<UnstructuredGrid>
<Piece  NumberOfPoints="2601" NumberOfCells="5000">
<Points>
<DataArray  type="Float64"  NumberOfComponents="3"  format="ascii">-10 -10 0  -9.6 -10 0  -9.199999999999999 -10 0  -8.800000000000001 -10 0  -8.4 -10 0  -8 -10 0  -7.6 -10 0  -7.2 -10 0  -6.8 -10 0  -6.4 -10 0  -6 -10 0  -5.6 -10 0  -5.2 -10 0  -4.8 -10 0  -4.4 -10 0  -4 -10 0  -3.6 -10 0  -3.2 -10 0  -2.8 -10 0  -2.4 -10 0  -2 -10 0  -1.6 -10 0  -1.199999999999999 -10 0  -0.8000000000000007 -10 0  -0.4000000000000004 -10 0  0 -10 0  0.4000000000000004 -10 0  0.8000000000000007 -10 0  1.199999999999999 -10 0  1.6 -10 0  2 -10 0  2.4 -10 0  2.800000000000001 -10 0  3.199999999999999 -10 0  3.6 -10 0  4 -10 0  4.4 -10 0  4.800000000000001 -10 0  5.199999999999999 -10 0  5.6 -10 0  6 -10 0  6.399999999999999 -10 0  6.800000000000001 -10 0  7.199999999999999 -10 0  7.600000000000001 -10 0  8 -10 0  8.399999999999999 -10 0  8.800000000000001 -10 0  9.199999999999999 -10 0  9.600000000000001 -10 0  10 -10 0  -10 -9.6 0  -9.6 -9.6 0  -9.199999999999999 -9.6 0  -8.800000000000001 -9.6 0  -8.4 -9.6 0  -8 -9.6 0  -7.6 -9.6 0  -7.2 -9.6 0  -6.8 -9.6 0  -6.4 -9.6 0  -6 -9.6 0  -5.6 -9.6 0  -5.2 -9.6 0  -4.8 -9.6 0  -4.4 -9.6 0  -4 -9.6 0  -3.6 -9.6 0  -3.2 -9.6 0  -2.8 -9.6 0  -2.4 -9.6 0  -2 -9.6 0  -1.6 -9.6 0  -1.199999999999999 -9.6 0  -0.8000000000000007 -9.6 0  -0.4000000000000004 -9.6 0  0 -9.6 0  0.4000000000000004 -9.6 0  0.8000000000000007 -9.6 0  1.199999999999999 -9.6 0  1.6 -9.6 0  2 -9.6 0  2.4 -9.6 0  2.800000000000001 -9.6 0  3.199999999999999 -9.6 0  3.6 -9.6 0  4 -9.6 0  4.4 -9.6 0  4.800000000000001 -9.6 0  5.199999999999999 -9.6 0  5.6 -9.6 0  6 -9.6 0  6.399999999999999 -9.6 0  6.800000000000001 -9.6 0  7.199999999999999 -9.6 0  7.600000000000001 -9.6 0  8 -9.6 0  8.399999999999999 -9.6 0  8.800000000000001 -9.6 0  9.199999999999999 -9.6 0  9.600000000000001 -9.6 0  10 -9.6 0  -10 -9.199999999999999 0  -9.6 -9.199999999999999 0  -9.199999999999999 -9.199999999999999 0  -8.800000000000001 -9.199999999999999 0  -8.4 -9.199999999999999 0  -8 -9.199999999999999 0  -7.6 -9.199999999999999 0  -7.2 -9.199999999999999 0  -6.8 -9.199999999999999 0  -6.4 -9.199999999999999 0  -6 -9.199999999999999 0  -5.6 -9.199999999999999 0  -5.2 -9.199999999999999 0  -4.8 -9.199999999999999 0  -4.4 -9.199999999999999 0  -4 -9.199999999999999 0  -3.6 -9.199999999999999 0  -3.2 -9.199999999999999 0  -2.8 -9.199999999999999 0  -2.4 -9.199999999999999 0  -2 -9.199999999999999 0  -1.6 -9.199999999999999 0  -1.199999999999999 -9.199999999999999 0  -0.8000000000000007 -9.199999999999999 0  -0.4000000000000004 -9.199999999999999 0  0 -9.199999999999999 0  0.4000000000000004 -9.199999999999999 0  0.8000000000000007 -9.199999999999999 0  1.199999999999999 -9.199999999999999 0  1.6 -9.199999999999999 0  2 -9.199999999999999 0  2.4 -9.199999999999999 0  2.800000000000001 -9.199999999999999 0  3.199999999999999 -9.199999999999999 0  3.6 -9.199999999999999 0  4 -9.199999999999999 0  4.4 -9.199999999999999 0  4.800000000000001 -9.199999999999999 0  5.199999999999999 -9.199999999999999 0  5.6 -9.199999999999999 0  6 -9.199999999999999 0  6.399999999999999 -9.199999999999999 0  6.800000000000001 -9.199999999999999 0  7.199999999999999 -9.199999999999999 0  7.600000000000001 -9.199999999999999 0  8 -9.199999999999999 0  8.399999999999999 -9.199999999999999 0  8.800000000000001 -9.199999999999999 0  9.199999999999999 -9.199999999999999 0  9.600000000000001 -9.199999999999999 0  10 -9.199999999999999 0  -10 -8.800000000000001 0  -9.6 -8.800000000000001 0  -9.199999999999999 -8.800000000000001 0  -8.800000000000001 -8.800000000000001 0  -8.4 -8.800000000000001 0  -8 -8.800000000000001 0  -7.6 -8.800000000000001 0  -7.2 -8.800000000000001 0  -6.8 -8.800000000000001 0  -6.4 -8.800000000000001 0  -6 -8.800000000000001 0  -5.6 -8.800000000000001 0  -5.2 -8.800000000000001 0  -4.8 -8.800000000000001 0  -4.4 -8.800000000000001 0  -4 -8.800000000000001 0  -3.6 -8.800000000000001 0  -3.2 -8.800000000000001 0  -2.8 -8.800000000000001 0  -2.4 -8.800000000000001 0  -2 -8.800000000000001 0  -1.6 -8.800000000000001 0  -1.199999999999999 -8.800000000000001 0  -0.8000000000000007 -8.800000000000001 0  -0.4000000000000004 -8.800000000000001 0  0 -8.800000000000001 0  0.4000000000000004 -8.800000000000001 0  0.8000000000000007 -8.800000000000001 0  1.199999999999999 -8.800000000000001 0  1.6 -8.800000000000001 0  2 -8.800000000000001 0  2.4 -8.800000000000001 0  2.800000000000001 -8.800000000000001 0  3.199999999999999 -8.800000000000001 0  3.6 -8.800000000000001 0  4 -8.800000000000001 0  4.4 -8.800000000000001 0  4.800000000000001 -8.800000000000001 0  5.199999999999999 -8.800000000000001 0  5.6 -8.800000000000001 0  6 -8.800000000000001 0  6.399999999999999 -8.800000000000001 0  6.800000000000001 -8.800000000000001 0  7.199999999999999 -8.800000000000001 0  7.600000000000001 -8.800000000000001 0  8 -8.800000000000001 0  8.399999999999999 -8.800000000000001 0  8.800000000000001 -8.800000000000001 0  9.199999999999999 -8.800000000000001 0  9.600000000000001 -8.800000000000001 0  10 -8.800000000000001 0  -10 -8.4 0  -9.6 -8.4 0  -9.199999999999999 -8.4 0  -8.800000000000001 -8.4 0  -8.4 -8.4 0  -8 -8.4 0  -7.6 -8.4 0  -7.2 -8.4 0  -6.8 -8.4 0  -6.4 -8.4 0  -6 -8.4 0  -5.6 -8.4 0  -5.2 -8.4 0  -4.8 -8.4 0  -4.4 -8.4 0  -4 -8.4 0  -3.6 -8.4 0  -3.2 -8.4 0  -2.8 -8.4 0  -2.4 -8.4 0  -2 -8.4 0  -1.6 -8.4 0  -1.199999999999999 -8.4 0  -0.8000000000000007 -8.4 0  -0.4000000000000004 -8.4 0  0 -8.4 0  0.4000000000000004 -8.4 0  0.8000000000000007 -8.4 0  1.199999999999999 -8.4 0  1.6 -8.4 0  2 -8.4 0  2.4 -8.4 0  2.800000000000001 -8.4 0  3.199999999999999 -8.4 0  3.6 -8.4 0  4 -8.4 0  4.4 -8.4 0  4.800000000000001 -8.4 0  5.199999999999999 -8.4 0  5.6 -8.4 0  6 -8.4 0  6.399999999999999 -8.4 0  6.800000000000001 -8.4 0  7.199999999999999 -8.4 0  7.600000000000001 -8.4 0  8 -8.4 0  8.399999999999999 -8.4 0  8.800000000000001 -8.4 0  9.199999999999999 -8.4 0  9.600000000000001 -8.4 0  10 -8.4 0  -10 -8 0  -9.6 -8 0  -9.199999999999999 -8 0  -8.800000000000001 -8 0  -8.4 -8 0  -8 -8 0  -7.6 -8 0  -7.2 -8 0  -6.8 -8 0  -6.4 -8 0  -6 -8 0  -5.6 -8 0  -5.2 -8 0  -4.8 -8 0  -4.4 -8 0  -4 -8 0  -3.6 -8 0  -3.2 -8 0  -2.8 -8 0  -2.4 -8 0  -2 -8 0  -1.6 -8 0  -1.199999999999999 -8 0  -0.8000000000000007 -8 0  -0.4000000000000004 -8 0  0 -8 0  0.4000000000000004 -8 0  0.8000000000000007 -8 0  1.199999999999999 -8 0  1.6 -8 0  2 -8 0  2.4 -8 0  2.800000000000001 -8 0  3.199999999999999 -8 0  3.6 -8 0  4 -8 0  4.4 -8 0  4.800000000000001 -8 0  5.199999999999999 -8 0  5.6 -8 0  6 -8 0  6.399999999999999 -8 0  6.800000000000001 -8 0  7.199999999999999 -8 0  7.600000000000001 -8 0  8 -8 0  8.399999999999999 -8 0  8.800000000000001 -8 0  9.199999999999999 -8 0  9.600000000000001 -8 0  10 -8 0  -10 -7.6 0  -9.6 -7.6 0  -9.199999999999999 -7.6 0  -8.800000000000001 -7.6 0  -8.4 -7.6 0  -8 -7.6 0  -7.6 -7.6 0  -7.2 -7.6 0  -6.8 -7.6 0  -6.4 -7.6 0  -6 -7.6 0  -5.6 -7.6 0  -5.2 -7.6 0  -4.8 -7.6 0  -4.4 -7.6 0  -4 -7.6 0  -3.6 -7.6 0  -3.2 -7.6 0  -2.8 -7.6 0  -2.4 -7.6 0  -2 -7.6 0  -1.6 -7.6 0  -1.199999999999999 -7.6 0  -0.8000000000000007 -7.6 0  -0.4000000000000004 -7.6 0  0 -7.6 0  0.4000000000000004 -7.6 0  0.8000000000000007 -7.6 0  1.199999999999999 -7.6 0  1.6 -7.6 0  2 -7.6 0  2.4 -7.6 0  2.800000000000001 -7.6 0  3.199999999999999 -7.6 0  3.6 -7.6 0  4 -7.6 0  4.4 -7.6 0  4.800000000000001 -7.6 0  5.199999999999999 -7.6 0  5.6 -7.6 0  6 -7.6 0  6.399999999999999 -7.6 0  6.800000000000001 -7.6 0  7.199999999999999 -7.6 0  7.600000000000001 -7.6 0  8 -7.6 0  8.399999999999999 -7.6 0  8.800000000000001 -7.6 0  9.199999999999999 -7.6 0  9.600000000000001 -7.6 0  10 -7.6 0  -10 -7.2 0  -9.6 -7.2 0  -9.199999999999999 -7.2 0  -8.800000000000001 -7.2 0  -8.4 -7.2 0  -8 -7.2 0  -7.6 -7.2 0  -7.2 -7.2 0  -6.8 -7.2 0  -6.4 -7.2 0  -6 -7.2 0  -5.6 -7.2 0  -5.2 -7.2 0  -4.8 -7.2 0  -4.4 -7.2 0  -4 -7.2 0  -3.6 -7.2 0  -3.2 -7.2 0  -2.8 -7.2 0  -2.4 -7.2 0  -2 -7.2 0  -1.6 -7.2 0  -1.199999999999999 -7.2 0  -0.8000000000000007 -7.2 0  -0.4000000000000004 -7.2 0  0 -7.2 0  0.4000000000000004 -7.2 0  0.8000000000000007 -7.2 0  1.199999999999999 -7.2 0  1.6 -7.2 0  2 -7.2 0  2.4 -7.2 0  2.800000000000001 -7.2 0  3.199999999999999 -7.2 0  3.6 -7.2 0  4 -7.2 0  4.4 -7.2 0  4.800000000000001 -7.2 0  5.199999999999999 -7.2 0  5.6 -7.2 0  6 -7.2 0  6.399999999999999 -7.2 0  6.800000000000001 -7.2 0  7.199999999999999 -7.2 0  7.600000000000001 -7.2 0  8 -7.2 0  8.399999999999999 -7.2 0  8.800000000000001 -7.2 0  9.199999999999999 -7.2 0  9.600000000000001 -7.2 0  10 -7.2 0  -10 -6.8 0  -9.6 -6.8 0  -9.199999999999999 -6.8 0  -8.800000000000001 -6.8 0  -8.4 -6.8 0  -8 -6.8 0  -7.6 -6.8 0  -7.2 -6.8 0  -6.8 -6.8 0  -6.4 -6.8 0  -6 -6.8 0  -5.6 -6.8 0  -5.2 -6.8 0  -4.8 -6.8 0  -4.4 -6.8 0  -4 -6.8 0  -3.6 -6.8 0  -3.2 -6.8 0  -2.8 -6.8 0  -2.4 -6.8 0  -2 -6.8 0  -1.6 -6.8 0  -1.199999999999999 -6.8 0  -0.8000000000000007 -6.8 0  -0.4000000000000004 -6.8 0  0 -6.8 0  0.4000000000000004 -6.8 0  0.8000000000000007 -6.8 0  1.199999999999999 -6.8 0  1.6 -6.8 0  2 -6.8 0  2.4 -6.8 0  2.800000000000001 -6.8 0  3.199999999999999 -6.8 0  3.6 -6.8 0  4 -6.8 0  4.4 -6.8 0  4.800000000000001 -6.8 0  5.199999999999999 -6.8 0  5.6 -6.8 0  6 -6.8 0  6.399999999999999 -6.8 0  6.800000000000001 -6.8 0  7.199999999999999 -6.8 0  7.600000000000001 -6.8 0  8 -6.8 0  8.399999999999999 -6.8 0  8.800000000000001 -6.8 0  9.199999999999999 -6.8 0  9.600000000000001 -6.8 0  10 -6.8 0  -10 -6.4 0  -9.6 -6.4 0  -9.199999999999999 -6.4 0  -8.800000000000001 -6.4 0  -8.4 -6.4 0  -8 -6.4 0  -7.6 -6.4 0  -7.2 -6.4 0  -6.8 -6.4 0  -6.4 -6.4 0  -6 -6.4 0  -5.6 -6.4 0  -5.2 -6.4 0  -4.8 -6.4 0  -4.4 -6.4 0  -4 -6.4 0  -3.6 -6.4 0  -3.2 -6.4 0  -2.8 -6.4 0  -2.4 -6.4 0  -2 -6.4 0  -1.6 -6.4 0  -1.199999999999999 -6.4 0  -0.8000000000000007 -6.4 0  -0.4000000000000004 -6.4 0  0 -6.4 0
[...]
<PointData  Scalars="f_236"> 
<DataArray  type="Float64"  Name="f_236"  format="ascii">-3.8421823895517592e-12  3.1330752724991639e-06  -3.6777655469430188e-05  1.2118087221319199e-04  -2.6983314987234227e-04  4.8742373583067033e-04  -7.6873242207606675e-04  1.0985866871314623e-03  -1.4529072566867769e-03  1.8007559921055418e-03  -2.1071986944804812e-03  2.3367117604095040e-03  -2.4568038615963373e-03  2.4414976810672221e-03  -2.2743249240621106e-03  1.9505297280504445e-03  -1.4782473687522902e-03  8.7852005494035547e-04  -1.8412063620276624e-04  -5.6273216010653093e-04  1.3135775630021610e-03  -2.0175576201689732e-03  2.6255620654426874e-03  -3.0943009466819415e-03  3.3899363866471146e-03  -3.4909430740185533e-03  3.3899363866482872e-03  -3.0943009466842439e-03  2.6255620654459686e-03  -2.0175576201730411e-03  1.3135775630069395e-03  -5.6273216011159741e-04  -1.8412063619777791e-04  8.7852005493567053e-04  -1.4782473687486441e-03  1.9505297280479963e-03  -2.2743249240613876e-03  2.4414976810686602e-03  -2.4568038615997117e-03  2.3367117604154160e-03  -2.1071986944883525e-03  1.8007559921154172e-03  -1.4529072566978271e-03  1.0985866871432454e-03  -7.6873242208806724e-04  4.8742373584194826e-04  -2.6983314988248471e-04  1.2118087222158089e-04  -3.6777655475802200e-05  3.1330752762188511e-06  -3.8426371208836223e-12  -3.1330224880652569e-06  -1.3002203572010146e-10  1.5370213100847555e-04  -5.5794152851779100e-04  1.2794294869325632e-03  -2.3415534992125477e-03  3.7189162338852775e-03  -5.3371153470591860e-03  7.0778776765520355e-03  -8.7891247321940837e-03  1.0299048080430178e-02  -1.1432861788302875e-02  1.2030614952666149e-02  -1.1964318710408270e-02  1.1152682283693939e-02  -9.5719585966041621e-03  7.2617528523480444e-03  -4.3251140308016352e-03  9.2276536024465537e-04  2.7381155799476968e-03  -6.4196363113036333e-03  9.8720817569672280e-03  -1.2854282968604131e-02  1.5153632288274028e-02  -1.6603932684236936e-02  1.7099456889726597e-02  -1.6603932684242637e-02  1.5153632288285368e-02  -1.2854282968620621e-02  9.8720817569876856e-03  -6.4196363113270573e-03  2.7381155799728460e-03  9.2276536021963448e-04  -4.3251140307787794e-03  7.2617528523292608e-03  -9.5719585965916947e-03  1.1152682283689713e-02  -1.1964318710414062e-02  1.2030614952682961e-02  -1.1432861788331049e-02  1.0299048080468760e-02  -8.7891247322412387e-03  7.0778776766053791e-03  -5.3371153471165785e-03  3.7189162339434779e-03  -2.3415534992680593e-03  1.2794294869822181e-03  -5.5794152855902354e-04  1.5370213103895088e-04  -1.3003982964843887e-10  -3.1330224844866108e-06  3.6777563624497691e-05  -1.5370168069899591e-04  -3.8958307254430922e-10  6.0453084067453252e-04  -1.7811687364166033e-03  3.5744042303399162e-03  -5.9422024787763794e-03  8.7555214843637874e-03  -1.1807286972043390e-02  1.4830081326604648e-02  -1.7520924744378916e-02  1.9570800900402311e-02  -2.0696077839459884e-02  2.0668747211433306e-02  -1.9342474818003268e-02  1.6671817528047778e-02  -1.2722582587053454e-02  7.6721268048306843e-03  -1.7993372099980979e-03  -4.5349883588621338e-03  1.0915725887598827e-02  -1.6906572130338617e-02  2.2085805000810872e-02  -2.6081437553852036e-02  2.8602576364509406e-02  -2.9464125449970555e-02  2.8602576364519371e-02  -2.6081437553871861e-02  2.2085805000839911e-02  -1.6906572130375028e-02  1.0915725887640835e-02  -4.5349883589071880e-03  -1.7993372099529565e-03  7.6721268047888654e-03  -1.2722582587018680e-02  1.6671817528023835e-02  -1.9342474817993824e-02  2.0668747211440644e-02  -2.0696077839485870e-02  1.9570800900447639e-02  -1.7520924744442293e-02  1.4830081326682992e-02  -1.1807286972133188e-02  8.7555214844607394e-03  -5.9422024788750132e-03  3.5744042304345961e-03  -1.7811687365018732e-03  6.0453084074550060e-04  -3.8963548187000658e-10  -1.5370168066833787e-04  3.6777563617994205e-05  -1.2118074748528061e-04  5.5794091718977805e-04  -6.0452978357080245e-04  -7.1641371281266595e-10  1.4335121910549070e-03  -3.7655186921939109e-03  6.9433239613804296e-03  -1.0791137220472207e-02  1.5022458686961176e-02  -1.9264701867559453e-02  2.3093789286882917e-02  -2.6075441673921378e-02  2.7809177393865611e-02  -2.7970718682922766e-02  2.6348596840836618e-02  -2.2871252774890549e-02  1.7621795598737135e-02  -1.0838728818072822e-02  2.9022722233023523e-03  5.6927276180297175e-03  -1.4375024791035862e-02  2.2542992187252156e-02  -2.9614319545719997e-02  3.5074900832315827e-02  -3.8522461986589200e-02  3.9700940201778223e-02  -3.8522461986602918e-02  3.5074900832343173e-02  -2.9614319545759833e-02  2.2542992187303070e-02  -1.4375024791095096e-02  5.6927276180937228e-03  2.9022722232377434e-03  -1.0838728818011760e-02  1.7621795598685319e-02  -2.2871252774853312e-02  2.6348596840818719e-02  -2.7970718682927574e-02  2.7809177393895282e-02  -2.6075441673976709e-02  2.3093789286962426e-02  -1.9264701867659762e-02  1.5022458687077489e-02  -1.0791137220598766e-02  6.9433239615107004e-03  -3.7655186923197378e-03  1.4335121911687996e-03  -7.1650900663928602e-10  -6.0452978350032096e-04  5.5794091714849435e-04  -1.2118074747675026e-04  2.6983300024137379e-04  -1.2794287536618953e-03  1.7811674694864215e-03  -1.4335104761386663e-03  -1.0242558573763714e-09  2.6186822708597602e-03  -6.3669471843374572e-03  1.1032846490149793e-02  -1.6263278036707261e-02  2.1594587662080934e-02  -2.6495737826073010e-02  3.0419947044669857e-02  -3.2859820593044153e-02  3.3400589103494631e-02  -3.1766187722797344e-02  2.7853535548845038e-02  -2.1751455042624386e-02  1.3742102179469286e-02  -4.2844244114719860e-03  -6.0191318266434764e-03  1.6469842227866693e-02  -2.6329690254934607e-02  3.4882997861821231e-02  -4.1497105676442415e-02  4.5676556816695031e-02  -4.7105810918818609e-02  4.5676556816711456e-02  -4.1497105676475320e-02  3.4882997861869498e-02  -2.6329690254996523e-02  1.6469842227939162e-02  -6.0191318267228322e-03  -4.2844244113903534e-03  1.3742102179391142e-02  -2.1751455042556340e-02  2.7853535548793759e-02  -3.1766187722768589e-02  3.3400589103492473e-02  -3.2859820593071243e-02  3.0419947044727166e-02  -2.6495737826159195e-02  2.1594587662192587e-02  -1.6263278036838982e-02  1.1032846490294946e-02  -6.3669471844882879e-03  2.6186822710072147e-03  -1.0243907053060690e-09  -1.4335104760254630e-03  1.7811674694020333e-03  -1.2794287536123862e-03  2.6983300023114857e-04  -4.8742357064215095e-04  2.3415526898563971e-03  -3.5744028334969676e-03  3.7655168049367765e-03  -2.6186800226215405e-03  -1.2290264643209297e-09  4.0407780096743777e-03  -9.2680339341125705e-03  1.5277613955715698e-02  -2.1532227065765450e-02  2.7411642665183554e-02  -3.2272910522866710e-02  3.5514800557840301e-02  -3.6640182867755153e-02  3.5310198599738149e-02  -3.1384798271972068e-02  2.4945478473661471e-02  -1.6297711989653366e-02  5.9524821394337573e-03  5.4116832253102813e-03  -1.7002918811762750e-02  2.7981646462927303e-02  -3.7531679061741437e-02  4.4930308464143406e-02  -4.9610936997519325e-02  5.1212475088630957e-02  -4.9610936997536853e-02  4.4930308464178545e-02  -3.7531679061792861e-02  2.7981646462994371e-02  -1.7002918811842644e-02  5.4116832253993941e-03  5.9524821393404188e-03  -1.6297711989562310e-02  2.4945478473580099e-02  -3.1384798271907696e-02  3.5310198599697112e-02  -3.6640182867742205e-02  3.5514800557858953e-02  -3.2272910522918113e-02  2.7411642665267234e-02  -2.1532227065878047e-02  1.5277613955851969e-02  -9.2680339342654898e-03  4.0407780098352126e-03  -1.2291855377968879e-09  -2.6186800224750817e-03  3.7655168048125608e-03  -3.5744028334042115e-03  2.3415526898019675e-03  -4.8742357063083594e-04  7.6873225133603396e-04  -3.7189153975441020e-03  5.9422010375139913e-03  -6.9433220190119934e-03  6.3669448790501992e-03  -4.0407755024395994e-03  -1.2693919092022119e-09  5.5095681449463122e-03  -1.2050137421405720e-02  1.9030808638292974e-02  -2.5763002124595116e-02  3.1527192514040417e-02  -3.5644514924519408e-02  3.7546282770907748e-02  -3.6834593625172316e-02  3.3327997149283681e-02  -2.7087582357327743e-02  1.8420679307247466e-02  -7.8614878283493651e-03  -3.8698590976027638e-03  1.5926227161098674e-02  -2.7405105283779117e-02  3.7426384745356006e-02  -4.5209134859698102e-02  5.0140273674315852e-02  -5.1828760966841844e-02  5.0140273674332922e-02  -4.5209134859731853e-02  3.7426384745405834e-02  -2.7405105283844731e-02  1.5926227161178433e-02  -3.8698590976934833e-03  -7.8614878282519344e-03  1.8420679307149707e-02  -2.7087582357237652e-02  3.3327997149208657e-02  -3.6834593625119268e-02  3.7546282770882212e-02  -3.5644514924525680e-02  3.1527192514080600e-02  -2.5763002124669216e-02  1.9030808638398108e-02  -1.2050137421537028e-02  5.5095681450965826e-03  -1.2695523367340832e-09  -4.0407755022793786e-03  6.3669448789011778e-03  -6.9433220188849501e-03  5.9422010374183612e-03  -3.7189153974878978e-03  7.6873225132445381e-04  -1.0985865207518845e-03  5.3371145323606465e-03  -8.7555200832363581e-03  1.0791135338670297e-02  -1.1032844268141478e-02  9.2680315349924630e-03  -5.5095657405228819e-03  -1.1218324185794464e-09  6.8076097552114663e-03  -1.4290547205594407e-02  2.1715148362356083e-02  -2.8307748284925733e-02  3.3331056904964532e-02  -3.6158552253247454e-02  3.6339626116540090e-02  -3.3649055540908496e-02  2.8115835958547466e-02  -2.0028358030554309e-02  9.9151549643816152e-03  1.4972244588633025e-03  -1.3345472543334415e-02  2.4704324078004367e-02  -3.4668002997701779e-02  4.2430752771127206e-02  -4.7358943788842714e-02  4.9048018584785150e-02  -4.7358943788856668e-02  4.2430752771155447e-02  -3.4668002997744356e-02  2.4704324078061300e-02  -1.3345472543405859e-02  1.4972244589473976e-03  9.9151549642884657e-03  -2.0028358030457476e-02  2.8115835958454335e-02  -3.3649055540827102e-02  3.6339626116477106e-02  -3.6158552253209596e-02  3.3331056904956288e-02  -2.8307748284950626e-02  2.1715148362414675e-02  -1.4290547205685225e-02  6.8076097553297970e-03  -1.1219710566503151e-09  -5.5095657403725221e-03  9.2680315348405776e-03  -1.1032844267999262e-02  1.0791135338548051e-02  -8.7555200831439788e-03  5.3371145323063114e-03  -1.0985865207407096e-03  1.4529071037597701e-03  -7.0778769280841940e-03  1.1807285688420141e-02  -1.5022456971206488e-02  1.6263276025298940e-02  -1.5277611806466007e-02  1.2050135299538623e-02  -6.8076078189285016e-03  -8.0656274192377577e-10  7.7408520171114315e-03  -1.5661132736276454e-02  2.2957781512725876e-02  -2.8857053446300684e-02  3.2691331752189974e-02  -3.3966725281155026e-02  3.2414841906157635e-02  -2.8023616940807031e-02  2.1044061762713260e-02  -1.1972090805297982e-02  1.5069656095136237e-03  9.5098653886858207e-03  -2.0169868058208647e-02  2.9579453249357901e-02  -3.6941243324260291e-02  4.1626930986756308e-02  -4.3234865108759957e-02  4.1626930986765336e-02  -3.6941243324279151e-02  2.9579453249387207e-02  -2.0169868058250641e-02  9.5098653887416024e-03  1.5069656094441255e-03  -1.1972090805216936e-02  2.1044061762624834e-02  -2.8023616940717214e-02  3.2414841906074222e-02  -3.3966725281085311e-02  3.2691331752140777e-02  -2.8857053446277953e-02  2.2957781512733453e-02  -1.5661132736316141e-02  7.7408520171822906e-03  -8.0666054637106586e-10  -6.8076078188095491e-03  1.2050135299407117e-02  -1.5277611806331720e-02  1.6263276025171577e-02  -1.5022456971096053e-02  1.1807285688336134e-02  -7.0778769280348272e-03  1.4529071037496558e-03  -1.8007558602690873e-03  8.7891240873951230e-03  -1.4830080225227979e-02  1.9264700405621071e-02  -2.1594585966350142e-02  2.1532225282069661e-02  -1.9030806918108552e-02  1.4290545692191363e-02  -7.7408508325616911e-03  -3.8286755553346688e-10  8.1838439033929816e-03  -1.6004616721335633e-02  2.2676435756948467e-02  -2.7510249194541720e-02  2.9981660980950540e-02  -2.9783360164630138e-02  2.6857050167988308e-02  -2.1401728984806429e-02  1.3857432361437503e-02  -4.8659015465507801e-03  -4.7881501312870417e-03  1.4249634071112851e-02  -2.2672673330608285e-02  2.9299627343272228e-02  -3.3532044866922663e-02  3.4986796531740937e-02  -3.3532044866924751e-02  2.9299627343277870e-02  -2.2672673330619921e-02  1.4249634071134278e-02  -4.7881501313214109e-03  -4.8659015465020578e-03  1.3857432361374664e-02  -2.1401728984732093e-02  2.6857050167907657e-02  -2.9783360164549171e-02  2.9981660980876956e-02  -2.7510249194483156e-02  2.2676435756911046e-02  -1.6004616721324066e-02  8.1838439034098796e-03  -3.8291337296421485e-10  -7.7408508324900704e-03  1.4290545692099331e-02  -1.9030806918003115e-02  2.1532225281959742e-02  -2.1594585966244684e-02  1.9264700405528554e-02  -1.4830080225157220e-02  8.7891240873532867e-03  -1.8007558602606659e-03  2.1071985894309340e-03  -1.0299047567187910e-02  1.7520923873180348e-02  -2.3093788143064536e-02  2.6495736521824041e-02  -2.7411641328694971e-02  2.5763000887651412e-02  -2.1715147347563600e-02  1.5661132045161504e-02  -8.1838436065133080e-03  6.5013189439863336e-11  8.1086073133578140e-03  -1.5370020605821268e-02  2.1095987324103206e-02  -2.4747715572123026e-02  2.5987211746732693e-02  -2.4709286526172276e-02  2.1051172363657663e-02  -1.5378846034334887e-02  8.2513865365557559e-03  -3.6680711243135527e-04  -7.5054220488201462e-03  1.4598667346839395e-02  -2.0223095723035406e-02  2.3832196831302145e-02  -2.5075467922221571e-02  2.3832196831296563e-02  -2.0223095723026364e-02  1.4598667346831032e-02  -7.5054220488177635e-03  -3.6680711242221431e-04  8.2513865365316536e-03  -1.5378846034294515e-02  2.1051172363601468e-02  -2.4709286526103220e-02  2.5987211746656944e-02  -2.4747715572047538e-02  2.1095987324035819e-02  -1.5370020605768836e-02  8.1086073133254007e-03  6.5021548796540745e-11  -8.1838436064966599e-03  1.5661132045121567e-02  -2.1715147347504016e-02  2.5763000887578536e-02  -2.7411641328615878e-02  2.6495736521745687e-02  -2.3093788142994464e-02  1.7520923873125781e-02  -1.0299047567155556e-02  2.1071985894242458e-03  -2.3367116855953097e-03  1.1432861423459935e-02  -1.9570800287907100e-02  2.6075440885528670e-02  -3.0419946174176423e-02  3.2272909676480332e-02  -3.1527191799399938e-02  2.8307747799851939e-02  -2.2957781334817295e-02  1.6004616899443613e-02  -8.1086078617932829e-03  4.4803517389296304e-10  7.5901951437428996e-03  -1.3998724979910367e-02  1.8691483553006479e-02  -2.1311964278023895e-02  2.1712215806894763e-02  -1.9963446266611916e-02  1.6345382509810172e-02  -1.1315537813776465e-02  5.4614725184273386e-03  5.5923757582169509e-04  -6.0854370294138125e-03  1.0518739085911614e-02  -1.3383318142361681e-02  1.4373325681216314e-02  -1.3383318142347831e-02  1.0518739085887043e-02  -6.0854370293841565e-03  5.5923757579424591e-04  5.4614725184453684e-03  -1.1315537813779326e-02  1.6345382509794022e-02  -1.9963446266576045e-02  2.1712215806840039e-02  -2.1311964277955141e-02  1.8691483552930436e-02  -1.3998724979835080e-02  7.5901951436754041e-03  4.4808914651452703e-10  -8.1086078618288621e-03  1.6004616899458680e-02  -2.2957781334812289e-02  2.8307747799829055e-02  -3.1527191799364050e-02  3.2272909676435854e-02  -3.0419946174128919e-02  2.6075440885483900e-02  -1.9570800287870765e-02  1.1432861423437801e-02  -2.3367116855905917e-03  2.4568038181180360e-03  -1.2030614741527912e-02  2.0696077493963447e-02  -2.7809176970142197e-02  3.2859820163870651e-02  -3.5514800204540661e-02  3.5644514727765822e-02  -3.3331056935410143e-02  2.8857053756000690e-02  -2.2676436372454242e-02  1.5370021523678008e-02  -7.5901963288897093e-03  6.9364745321992957e-10  6.7876049229947449e-03  -1.2264558328658170e-02  1.6071478941129196e-02  -1.8026386342821662e-02  1.8135798204002029e-02  -1.6587363543644970e-02  1.3724972437778012e-02  -1.0008969973622984e-02  5.9655284327404263e-03  -2.1302606070178602e-03  -1.0083095407765891e-03  3.0598154763776726e-03  -3.7726093476615789e-03  3.0598154763559378e-03  -1.0083095407368982e-03  -2.1302606070684803e-03  5.9655284327933518e-03  -1.0008969973668911e-02  1.3724972437808796e-02  -1.6587363543655084e-02  1.8135798203987700e-02  -1.8026386342783134e-02  1.6071478941069851e-02  -1.2264558328583875e-02  6.7876049229129553e-03  6.9372896400013229e-10  -7.5901963289648437e-03  1.5370021523740889e-02  -2.2676436372501822e-02  2.8857053756031949e-02  -3.3331056935425707e-02  3.5644514727768313e-02  -3.5514800204532619e-02  3.2859820163855351e-02  -2.7809176970123740e-02  2.0696077493946162e-02  -1.2030614741516607e-02  2.4568038181156551e-03  -2.4414976677829209e-03  1.1964318647267051e-02  -2.0668747121958025e-02  2.7970718606469814e-02  -3.3400589090409105e-02  3.6640182973046630e-02  -3.7546283047104417e-02  3.6158552743179646e-02  -3.2691332482469568e-02  2.7510250170452798e-02  -2.1095988526476404e-02  1.3998726364376582e-02  -6.7876064217768225e-03  7.6307922806696462e-10  5.9046919605438382e-03  -1.0582469544884494e-02  1.3830009363264617e-02  -1.5595653510903026e-02  1.5975337796692943e-02  -1.5194168815894670e-02  1.3575737260999999e-02  -1.1502428026120951e-02  9.3708361705730856e-03  -7.5468415337259223e-03  6.3248920508804946e-03  -5.8955981048947285e-03  6.3248920509095773e-03  -7.5468415337797395e-03  9.3708361706435813e-03  -1.1502428026197978e-02  1.3575737261072706e-02  -1.5194168815953148e-02  1.5975337796729425e-02  -1.5595653510912025e-02  1.3830009363244522e-02  -1.0582469544837176e-02  5.9046919604740710e-03  7.6316470880497617e-10  -6.7876064218703649e-03  1.3998726364470537e-02  -2.1095988526564836e-02  2.7510250170531408e-02  -3.2691332482535702e-02  3.6158552743232042e-02  -3.7546283047143525e-02  3.6640182973072970e-02  -3.3400589090424058e-02  2.7970718606476153e-02  -2.0668747121959170e-02  1.1964318647266579e-02  -2.4414976677826269e-03  2.2743249378812079e-03  -1.1152682353277521e-02  1.9342474956884712e-02  -2.6348597071298833e-02  3.1766188072499070e-02  -3.5310199097330658e-02  3.6834594295390891e-02  -3.6339626975311907e-02  3.3966726331282691e-02  -2.9981662208883673e-02  2.4747716946230874e-02  -1.8691485023617841e-02  1.2264559829976242e-02  -5.9046934143446514e-03  6.6042652630108799e-10  5.1405724554893983e-03  -9.3079501569705674e-03  1.2403121644406606e-02  -1.4436193663704196e-02  1.5514754656909113e-02  -1.5823037615110440e-02  1.5594246495346379e-02  -1.5079049159319104e-02  1.4513577626571596e-02  -1.4090282628780306e-02  1.3934664837398726e-02  -1.4090282628815575e-02  1.4513577626637549e-02  -1.5079049159406593e-02  1.5594246495444707e-02  -1.5823037615208056e-02  1.5514754656994027e-02  -1.4436193663766840e-02  1.2403121644439831e-02  -9.3079501569705240e-03  5.1405724554567222e-03  6.6048878884061998e-10  -5.9046934144299729e-03  1.2264559830077057e-02  -1.8691485023726240e-02  2.4747716946340183e-02  -2.9981662208988735e-02  3.3966726331378760e-02  -3.6339626975396215e-02  3.6834594295461737e-02  -3.5310199097386495e-02  3.1766188072539954e-02  -2.6348597071326602e-02  1.9342474956901730e-02  -1.1152682353286036e-02  2.2743249378829882e-03  -1.9505297643823518e-03  9.5719587762829756e-03  -1.6671817854848808e-02  2.2871253254485854e-02  -2.7853536186974334e-02  3.1384799072095029e-02  -3.3327998110000437e-02  3.3649056653476526e-02  -3.2414843152431164e-02  2.9783361515725398e-02  -2.5987213162648775e-02  2.1311965708368033e-02  -1.6071480326985410e-02  1.0582470821748294e-02  -5.1405735570788699e-03  4.3133184927648085e-10  4.6415509909151411e-03  -8.6516051270661594e-03  1.1964754560889862e-02  -1.4577844952592645e-02  1.6539345980654003e-02  -1.7934308042084745e-02  1.8866709336690109e-02  -1.9441217128804398e-02  1.9746400468408986e-02  -1.9841239651895361e-02  1.9746400468449100e-02  -1.9441217128879633e-02  1.8866709336791413e-02  -1.7934308042200729e-02  1.6539345980772256e-02  -1.4577844952701246e-02  1.1964754560977304e-02  -8.6516051271231468e-03  4.6415509909364131e-03  4.3134788035970252e-10  -5.1405735571298751e-03  1.0582470821829148e-02  -1.6071480327088501e-02  2.1311965708484957e-02  -2.5987213162772724e-02  2.9783361515849465e-02  -3.2414843152549805e-02  3.3649056653584676e-02  -3.3327998110094667e-02  3.1384799072172752e-02  -2.7853536187034896e-02  2.287125325452