<?xml version="1.0"?>
<VTKFile type="UnstructuredGrid"  version="0.1"  >
<UnstructuredGrid>
<Piece  NumberOfPoints="2601" NumberOfCells="5000">
<Points>
<DataArray  type="Float64"  NumberOfComponents="3"  format="ascii">-10 -10 0  -9.6 -10 0  -9.199999999999999 -10 0  -8.800000000000001 -10 0  -8.4 -10 0  -8 -10 0  -7.6 -10 0  -7.2 -10 0  -6.8 -10 0  -6.4 -10 0  -6 -10 0  -5.6 -10 0  -5.2 -10 0  -4.8 -10 0  -4.4 -10 0  -4 -10 0  -3.6 -10 0  -3.2 -10 0  -2.8 -10 0  -2.4 -10 0  -2 -10 0  -1.6 -10 0  -1.199999999999999 -10 0  -0.8000000000000007 -10 0  -0.4000000000000004 -10 0  0 -10 0  0.4000000000000004 -10 0  0.8000000000000007 -10 0  1.199999999999999 -10 0  1.6 -10 0  2 -10 0  2.4 -10 0  2.800000000000001 -10 0  3.199999999999999 -10 0  3.6 -10 0  4 -10 0  4.4 -10 0  4.800000000000001 -10 0  5.199999999999999 -10 0  5.6 -10 0  6 -10 0  6.399999999999999 -10 0  6.800000000000001 -10 0  7.199999999999999 -10 0  7.600000000000001 -10 0  8 -10 0  8.399999999999999 -10 0  8.800000000000001 -10 0  9.199999999999999 -10 0  9.600000000000001 -10 0  10 -10 0  -10 -9.6 0  -9.6 -9.6 0  -9.199999999999999 -9.6 0  -8.800000000000001 -9.6 0  -8.4 -9.6 0  -8 -9.6 0  -7.6 -9.6 0  -7.2 -9.6 0  -6.8 -9.6 0  -6.4 -9.6 0  -6 -9.6 0  -5.6 -9.6 0  -5.2 -9.6 0  -4.8 -9.6 0  -4.4 -9.6 0  -4 -9.6 0  -3.6 -9.6 0  -3.2 -9.6 0  -2.8 -9.6 0  -2.4 -9.6 0  -2 -9.6 0  -1.6 -9.6 0  -1.199999999999999 -9.6 0  -0.8000000000000007 -9.6 0  -0.4000000000000004 -9.6 0  0 -9.6 0  0.4000000000000004 -9.6 0  0.8000000000000007 -9.6 0  1.199999999999999 -9.6 0  1.6 -9.6 0  2 -9.6 0  2.4 -9.6 0  2.800000000000001 -9.6 0  3.199999999999999 -9.6 0  3.6 -9.6 0  4 -9.6 0  4.4 -9.6 0  4.800000000000001 -9.6 0  5.199999999999999 -9.6 0  5.6 -9.6 0  6 -9.6 0  6.399999999999999 -9.6 0  6.800000000000001 -9.6 0  7.199999999999999 -9.6 0  7.600000000000001 -9.6 0  8 -9.6 0  8.399999999999999 -9.6 0  8.800000000000001 -9.6 0  9.199999999999999 -9.6 0  9.600000000000001 -9.6 0  10 -9.6 0  -10 -9.199999999999999 0  -9.6 -9.199999999999999 0  -9.199999999999999 -9.199999999999999 0  -8.800000000000001 -9.199999999999999 0  -8.4 -9.199999999999999 0  -8 -9.199999999999999 0  -7.6 -9.199999999999999 0  -7.2 -9.199999999999999 0  -6.8 -9.199999999999999 0  -6.4 -9.199999999999999 0  -6 -9.199999999999999 0  -5.6 -9.199999999999999 0  -5.2 -9.199999999999999 0  -4.8 -9.199999999999999 0  -4.4 -9.199999999999999 0  -4 -9.199999999999999 0  -3.6 -9.199999999999999 0  -3.2 -9.199999999999999 0  -2.8 -9.199999999999999 0  -2.4 -9.199999999999999 0  -2 -9.199999999999999 0  -1.6 -9.199999999999999 0  -1.199999999999999 -9.199999999999999 0  -0.8000000000000007 -9.199999999999999 0  -0.4000000000000004 -9.199999999999999 0  0 -9.199999999999999 0  0.4000000000000004 -9.199999999999999 0  0.8000000000000007 -9.199999999999999 0  1.199999999999999 -9.199999999999999 0  1.6 -9.199999999999999 0  2 -9.199999999999999 0  2.4 -9.199999999999999 0  2.800000000000001 -9.199999999999999 0  3.199999999999999 -9.199999999999999 0  3.6 -9.199999999999999 0  4 -9.199999999999999 0  4.4 -9.199999999999999 0  4.800000000000001 -9.199999999999999 0  5.199999999999999 -9.199999999999999 0  5.6 -9.199999999999999 0  6 -9.199999999999999 0  6.399999999999999 -9.199999999999999 0  6.800000000000001 -9.199999999999999 0  7.199999999999999 -9.199999999999999 0  7.600000000000001 -9.199999999999999 0  8 -9.199999999999999 0  8.399999999999999 -9.199999999999999 0  8.800000000000001 -9.199999999999999 0  9.199999999999999 -9.199999999999999 0  9.600000000000001 -9.199999999999999 0  10 -9.199999999999999 0  -10 -8.800000000000001 0  -9.6 -8.800000000000001 0  -9.199999999999999 -8.800000000000001 0  -8.800000000000001 -8.800000000000001 0  -8.4 -8.800000000000001 0  -8 -8.800000000000001 0  -7.6 -8.800000000000001 0  -7.2 -8.800000000000001 0  -6.8 -8.800000000000001 0  -6.4 -8.800000000000001 0  -6 -8.800000000000001 0  -5.6 -8.800000000000001 0  -5.2 -8.800000000000001 0  -4.8 -8.800000000000001 0  -4.4 -8.800000000000001 0  -4 -8.800000000000001 0  -3.6 -8.800000000000001 0  -3.2 -8.800000000000001 0  -2.8 -8.800000000000001 0  -2.4 -8.800000000000001 0  -2 -8.800000000000001 0  -1.6 -8.800000000000001 0  -1.199999999999999 -8.800000000000001 0  -0.8000000000000007 -8.800000000000001 0  -0.4000000000000004 -8.800000000000001 0  0 -8.800000000000001 0  0.4000000000000004 -8.800000000000001 0  0.8000000000000007 -8.800000000000001 0  1.199999999999999 -8.800000000000001 0  1.6 -8.800000000000001 0  2 -8.800000000000001 0  2.4 -8.800000000000001 0  2.800000000000001 -8.800000000000001 0  3.199999999999999 -8.800000000000001 0  3.6 -8.800000000000001 0  4 -8.800000000000001 0  4.4 -8.800000000000001 0  4.800000000000001 -8.800000000000001 0  5.199999999999999 -8.800000000000001 0  5.6 -8.800000000000001 0  6 -8.800000000000001 0  6.399999999999999 -8.800000000000001 0  6.800000000000001 -8.800000000000001 0  7.199999999999999 -8.800000000000001 0  7.600000000000001 -8.800000000000001 0  8 -8.800000000000001 0  8.399999999999999 -8.800000000000001 0  8.800000000000001 -8.800000000000001 0  9.199999999999999 -8.800000000000001 0  9.600000000000001 -8.800000000000001 0  10 -8.800000000000001 0  -10 -8.4 0  -9.6 -8.4 0  -9.199999999999999 -8.4 0  -8.800000000000001 -8.4 0  -8.4 -8.4 0  -8 -8.4 0  -7.6 -8.4 0  -7.2 -8.4 0  -6.8 -8.4 0  -6.4 -8.4 0  -6 -8.4 0  -5.6 -8.4 0  -5.2 -8.4 0  -4.8 -8.4 0  -4.4 -8.4 0  -4 -8.4 0  -3.6 -8.4 0  -3.2 -8.4 0  -2.8 -8.4 0  -2.4 -8.4 0  -2 -8.4 0  -1.6 -8.4 0  -1.199999999999999 -8.4 0  -0.8000000000000007 -8.4 0  -0.4000000000000004 -8.4 0  0 -8.4 0  0.4000000000000004 -8.4 0  0.8000000000000007 -8.4 0  1.199999999999999 -8.4 0  1.6 -8.4 0  2 -8.4 0  2.4 -8.4 0  2.800000000000001 -8.4 0  3.199999999999999 -8.4 0  3.6 -8.4 0  4 -8.4 0  4.4 -8.4 0  4.800000000000001 -8.4 0  5.199999999999999 -8.4 0  5.6 -8.4 0  6 -8.4 0  6.399999999999999 -8.4 0  6.800000000000001 -8.4 0  7.199999999999999 -8.4 0  7.600000000000001 -8.4 0  8 -8.4 0  8.399999999999999 -8.4 0  8.800000000000001 -8.4 0  9.199999999999999 -8.4 0  9.600000000000001 -8.4 0  10 -8.4 0  -10 -8 0  -9.6 -8 0  -9.199999999999999 -8 0  -8.800000000000001 -8 0  -8.4 -8 0  -8 -8 0  -7.6 -8 0  -7.2 -8 0  -6.8 -8 0  -6.4 -8 0  -6 -8 0  -5.6 -8 0  -5.2 -8 0  -4.8 -8 0  -4.4 -8 0  -4 -8 0  -3.6 -8 0  -3.2 -8 0  -2.8 -8 0  -2.4 -8 0  -2 -8 0  -1.6 -8 0  -1.199999999999999 -8 0  -0.8000000000000007 -8 0  -0.4000000000000004 -8 0  0 -8 0  0.4000000000000004 -8 0  0.8000000000000007 -8 0  1.199999999999999 -8 0  1.6 -8 0  2 -8 0  2.4 -8 0  2.800000000000001 -8 0  3.199999999999999 -8 0  3.6 -8 0  4 -8 0  4.4 -8 0  4.800000000000001 -8 0  5.199999999999999 -8 0  5.6 -8 0  6 -8 0  6.399999999999999 -8 0  6.800000000000001 -8 0  7.199999999999999 -8 0  7.600000000000001 -8 0  8 -8 0  8.399999999999999 -8 0  8.800000000000001 -8 0  9.199999999999999 -8 0  9.600000000000001 -8 0  10 -8 0  -10 -7.6 0  -9.6 -7.6 0  -9.199999999999999 -7.6 0  -8.800000000000001 -7.6 0  -8.4 -7.6 0  -8 -7.6 0  -7.6 -7.6 0  -7.2 -7.6 0  -6.8 -7.6 0  -6.4 -7.6 0  -6 -7.6 0  -5.6 -7.6 0  -5.2 -7.6 0  -4.8 -7.6 0  -4.4 -7.6 0  -4 -7.6 0  -3.6 -7.6 0  -3.2 -7.6 0  -2.8 -7.6 0  -2.4 -7.6 0  -2 -7.6 0  -1.6 -7.6 0  -1.199999999999999 -7.6 0  -0.8000000000000007 -7.6 0  -0.4000000000000004 -7.6 0  0 -7.6 0  0.4000000000000004 -7.6 0  0.8000000000000007 -7.6 0  1.199999999999999 -7.6 0  1.6 -7.6 0  2 -7.6 0  2.4 -7.6 0  2.800000000000001 -7.6 0  3.199999999999999 -7.6 0  3.6 -7.6 0  4 -7.6 0  4.4 -7.6 0  4.800000000000001 -7.6 0  5.199999999999999 -7.6 0  5.6 -7.6 0  6 -7.6 0  6.399999999999999 -7.6 0  6.800000000000001 -7.6 0  7.199999999999999 -7.6 0  7.600000000000001 -7.6 0  8 -7.6 0  8.399999999999999 -7.6 0  8.800000000000001 -7.6 0  9.199999999999999 -7.6 0  9.600000000000001 -7.6 0  10 -7.6 0  -10 -7.2 0  -9.6 -7.2 0  -9.199999999999999 -7.2 0  -8.800000000000001 -7.2 0  -8.4 -7.2 0  -8 -7.2 0  -7.6 -7.2 0  -7.2 -7.2 0  -6.8 -7.2 0  -6.4 -7.2 0  -6 -7.2 0  -5.6 -7.2 0  -5.2 -7.2 0  -4.8 -7.2 0  -4.4 -7.2 0  -4 -7.2 0  -3.6 -7.2 0  -3.2 -7.2 0  -2.8 -7.2 0  -2.4 -7.2 0  -2 -7.2 0  -1.6 -7.2 0  -1.199999999999999 -7.2 0  -0.8000000000000007 -7.2 0  -0.4000000000000004 -7.2 0  0 -7.2 0  0.4000000000000004 -7.2 0  0.8000000000000007 -7.2 0  1.199999999999999 -7.2 0  1.6 -7.2 0  2 -7.2 0  2.4 -7.2 0  2.800000000000001 -7.2 0  3.199999999999999 -7.2 0  3.6 -7.2 0  4 -7.2 0  4.4 -7.2 0  4.800000000000001 -7.2 0  5.199999999999999 -7.2 0  5.6 -7.2 0  6 -7.2 0  6.399999999999999 -7.2 0  6.800000000000001 -7.2 0  7.199999999999999 -7.2 0  7.600000000000001 -7.2 0  8 -7.2 0  8.399999999999999 -7.2 0  8.800000000000001 -7.2 0  9.199999999999999 -7.2 0  9.600000000000001 -7.2 0  10 -7.2 0  -10 -6.8 0  -9.6 -6.8 0  -9.199999999999999 -6.8 0  -8.800000000000001 -6.8 0  -8.4 -6.8 0  -8 -6.8 0  -7.6 -6.8 0  -7.2 -6.8 0  -6.8 -6.8 0  -6.4 -6.8 0  -6 -6.8 0  -5.6 -6.8 0  -5.2 -6.8 0  -4.8 -6.8 0  -4.4 -6.8 0  -4 -6.8 0  -3.6 -6.8 0  -3.2 -6.8 0  -2.8 -6.8 0  -2.4 -6.8 0  -2 -6.8 0  -1.6 -6.8 0  -1.199999999999999 -6.8 0  -0.8000000000000007 -6.8 0  -0.4000000000000004 -6.8 0  0 -6.8 0  0.4000000000000004 -6.8 0  0.8000000000000007 -6.8 0  1.199999999999999 -6.8 0  1.6 -6.8 0  2 -6.8 0  2.4 -6.8 0  2.800000000000001 -6.8 0  3.199999999999999 -6.8 0  3.6 -6.8 0  4 -6.8 0  4.4 -6.8 0  4.800000000000001 -6.8 0  5.199999999999999 -6.8 0  5.6 -6.8 0  6 -6.8 0  6.399999999999999 -6.8 0  6.800000000000001 -6.8 0  7.199999999999999 -6.8 0  7.600000000000001 -6.8 0  8 -6.8 0  8.399999999999999 -6.8 0  8.800000000000001 -6.8 0  9.199999999999999 -6.8 0  9.600000000000001 -6.8 0  10 -6.8 0  -10 -6.4 0  -9.6 -6.4 0  -9.199999999999999 -6.4 0  -8.800000000000001 -6.4 0  -8.4 -6.4 0  -8 -6.4 0  -7.6 -6.4 0  -7.2 -6.4 0  -6.8 -6.4 0  -6.4 -6.4 0  -6 -6.4 0  -5.6 -6.4 0  -5.2 -6.4 0  -4.8 -6.4 0  -4.4 -6.4 0  -4 -6.4 0  -3.6 -6.4 0  -3.2 -6.4 0  -2.8 -6.4 0  -2.4 -6.4 0  -2 -6.4 0  -1.6 -6.4 0  -1.199999999999999 -6.4 0  -0.8000000000000007 -6.4 0  -0.4000000000000004 -6.4 0  0 -6.4 0
[...]
<PointData  Scalars="f_511"> 
<DataArray  type="Float64"  Name="f_511"  format="ascii">2.0184490889002831e-12  -1.2477286513790994e-05  1.4328580468896267e-04  -4.5521073309399930e-04  9.6374857590645149e-04  -1.6319374691713554e-03  2.3779912899589912e-03  -3.0939055783799950e-03  3.6705392102147770e-03  -4.0231024872713281e-03  4.1108816664191901e-03  -3.9464263823123340e-03  3.5919810840757686e-03  -3.1440345794710098e-03  2.7097425051297143e-03  -2.3809469720577261e-03  2.2120978779482394e-03  -2.2074306641637264e-03  2.3205061444958154e-03  -2.4662153079849738e-03  2.5423244366593041e-03  -2.4553182436977189e-03  2.1442535046918838e-03  -1.5968165134342606e-03  8.5366798023473139e-04  1.9273640297290427e-15  -8.5366798023845075e-04  1.5968165134380816e-03  -2.1442535046954565e-03  2.4553182437009316e-03  -2.5423244366620515e-03  2.4662153079870975e-03  -2.3205061444971191e-03  2.2074306641639632e-03  -2.2120978779472775e-03  2.3809469720557203e-03  -2.7097425051264023e-03  3.1440345794664791e-03  -3.5919810840700133e-03  3.9464263823053933e-03  -4.1108816664108131e-03  4.0231024872619536e-03  -3.6705392102043765e-03  3.0939055783694523e-03  -2.3779912899481869e-03  1.6319374691611843e-03  -9.6374857589719392e-04  4.5521073308631751e-04  -1.4328580468308868e-04  1.2477286510544953e-05  -2.0178497705368281e-12  1.2477259298631008e-05  6.5737173651542174e-11  -5.8888459109505162e-04  2.0602440986581118e-03  -4.4901458594426812e-03  7.6995044295616218e-03  -1.1291197606770343e-02  1.4740541342871845e-02  -1.7517258465226396e-02  1.9209424901769058e-02  -1.9619387624920777e-02  1.8808439664461985e-02  -1.7079461394024352e-02  1.4901779053964965e-02  -1.2796501023058123e-02  1.1210170084216554e-02  -1.0407391747583450e-02  1.0408480015179234e-02  -1.0987223857115506e-02  1.1729274767031412e-02  -1.2136932077481073e-02  1.1754831549954423e-02  -1.0285959550539375e-02  7.6697536242032851e-03  -4.1032431283311663e-03  -8.9225136433071542e-15  4.1032431283488727e-03  -7.6697536242207034e-03  1.0285959550556101e-02  -1.1754831549969941e-02  1.2136932077494181e-02  -1.1729274767041177e-02  1.0987223857121194e-02  -1.0408480015180204e-02  1.0407391747579509e-02  -1.1210170084207152e-02  1.2796501023042976e-02  -1.4901779053943997e-02  1.7079461393997401e-02  -1.8808439664428751e-02  1.9619387624881642e-02  -1.9209424901724698e-02  1.7517258465178109e-02  -1.4740541342821224e-02  1.1291197606719407e-02  -7.6995044295127841e-03  4.4901458593986782e-03  -2.0602440986212905e-03  5.8888459106789582e-04  -6.5721395609092794e-11  -1.2477259301798340e-05  -1.4328575914295823e-04  5.8888437233048613e-04  1.8102598286241940e-10  -2.1749263792983824e-03  6.0780492927259549e-03  -1.1397271094679763e-02  1.7432167364091151e-02  -2.3254841932699437e-02  2.7926815292023933e-02  -3.0719440617560517e-02  3.1284470570703063e-02  -2.9733478778920609e-02  2.6606940797347139e-02  -2.2740537295291116e-02  1.9061163922313367e-02  -1.6362170150193200e-02  1.5112368970519858e-02  -1.5345142835914405e-02  1.6654512953393458e-02  -1.8299061388048155e-02  1.9388402928519431e-02  -1.9106852942758767e-02  1.6919894657307161e-02  -1.2713209163157969e-02  6.8303846985984500e-03  1.3024037366820475e-14  -6.8303846986246114e-03  1.2713209163183874e-02  -1.6919894657332204e-02  1.9106852942782186e-02  -1.9388402928539470e-02  1.8299061388063791e-02  -1.6654512953402763e-02  1.5345142835916743e-02  -1.5112368970514498e-02  1.6362170150179895e-02  -1.9061163922291506e-02  2.2740537295260634e-02  -2.6606940797307174e-02  2.9733478778871010e-02  -3.1284470570643770e-02  3.0719440617492634e-02  -2.7926815291949104e-02  2.3254841932620635e-02  -1.7432167364011601e-02  1.1397271094603180e-02  -6.0780492926565833e-03  2.1749263792405207e-03  -1.8098295689533942e-10  -5.8888437235529061e-04  1.4328575914820940e-04  4.5521067480108139e-04  -2.0602438191420183e-03  2.1749259206880942e-03  2.8605575679869990e-10  -4.6809328074485191e-03  1.1437396644120237e-02  -1.9285610192451813e-02  2.6917093704434243e-02  -3.3006998126294262e-02  3.6527471984598041e-02  -3.6990144900790556e-02  3.4558989745074042e-02  -3.0006261631292032e-02  2.4522272342571025e-02  -1.9425207272934279e-02  1.5841426347766047e-02  -1.4433829851343430e-02  1.5244182413069468e-02  -1.7687610289348926e-02  2.0700535751153624e-02  -2.3006055467435591e-02  2.3432249024485138e-02  -2.1206040805116934e-02  1.6151155193766597e-02  -8.7419658566829199e-03  -1.2825702267762096e-14  8.7419658567085834e-03  -1.6151155193792434e-02  2.1206040805142747e-02  -2.3432249024509678e-02  2.3006055467457719e-02  -2.0700535751171124e-02  1.7687610289360133e-02  -1.5244182413073327e-02  1.4433829851339529e-02  -1.5841426347754019e-02  1.9425207272913622e-02  -2.4522272342540945e-02  3.0006261631251724e-02  -3.4558989745022604e-02  3.6990144900727627e-02  -3.6527471984524017e-02  3.3006998126211516e-02  -2.6917093704346085e-02  1.9285610192361760e-02  -1.1437396644032869e-02  4.6809328073688615e-03  -2.8598848422171035e-10  -2.1749259207381553e-03  2.0602438191711591e-03  -4.5521067480703355e-04  -9.6374851106327639e-04  4.4901455491991975e-03  -6.0780487903461314e-03  4.6809321956763524e-03  3.1420745031073697e-10  -7.4334482641181549e-03  1.6377607009104643e-02  -2.5172841004219473e-02  3.2136546778911534e-02  -3.5964503010552325e-02  3.6041416703823770e-02  -3.2585394817177170e-02  2.6591356126222283e-02  -1.9587172548208503e-02  1.3261756370633900e-02  -9.0553659385308998e-03  7.8115510285231291e-03  -9.5751805012191573e-03  1.3585524172901006e-02  -1.8466006435347095e-02  2.2564503149695339e-02  -2.4361502932931576e-02  2.2846969386094939e-02  -1.7774322762317097e-02  9.7297682786020821e-03  8.0572091305470987e-15  -9.7297682786185551e-03  1.7774322762334486e-02  -2.2846969386113188e-02  2.4361502932950210e-02  -2.2564503149712593e-02  1.8466006435361636e-02  -1.3585524172911157e-02  9.5751805012243233e-03  -7.8115510285228498e-03  9.0553659385251284e-03  -1.3261756370621710e-02  1.9587172548189383e-02  -2.6591356126194461e-02  3.2585394817139492e-02  -3.6041416703774809e-02  3.5964503010491762e-02  -3.2136546778841014e-02  2.5172841004141990e-02  -1.6377607009023916e-02  7.4334482640384912e-03  -3.1413361028221855e-10  -4.6809321957394928e-03  6.0780487903935804e-03  -4.4901455492270086e-03  9.6374851106908218e-04  1.6319374033102378e-03  -7.6995041154103829e-03  1.1397270595466981e-02  -1.1437396057856153e-02  7.4334477001668595e-03  2.2347532394089076e-10  -9.3909925980993590e-03  1.8762275237675020e-02  -2.6106469000185213e-02  2.9869093932598349e-02  -2.9322287786676803e-02  2.4738580005894181e-02  -1.7322594274549897e-02  8.9172873039072842e-03  -1.5560352799496343e-03  -3.0307229108949762e-03  3.8345603462288302e-03  -8.1216776184501506e-04  -5.1064811507409835e-03  1.2246850150723056e-02  -1.8599894223140269e-02  2.2313878802294244e-02  -2.2148544765605200e-02  1.7781329316509924e-02  -9.8912487485920114e-03  -8.3463401471079805e-17  9.8912487485927954e-03  -1.7781329316512395e-02  2.2148544765609429e-02  -2.2313878802300114e-02  1.8599894223147149e-02  -1.2246850150729930e-02  5.1064811507471122e-03  8.1216776183989936e-04  -3.8345603462245719e-03  3.0307229108916664e-03  1.5560352799514900e-03  -8.9172873039064272e-03  1.7322594274544679e-02  -2.4738580005882305e-02  2.9322287786655781e-02  -2.9869093932566773e-02  2.6106469000143562e-02  -1.8762275237625543e-02  9.3909925980446007e-03  -2.2341885378238368e-10  -7.4334477002208320e-03  1.1437396057903589e-02  -1.1397270595503599e-02  7.6995041154320600e-03  -1.6319374033146664e-03  -2.3779912267726713e-03  1.1291197306575159e-02  -1.7432166898899086e-02  1.9285609673664196e-02  -1.6377606560501915e-02  9.3909923258346361e-03  1.6558927399788048e-11  -9.5357102497045289e-03  1.6919122266330498e-02  -2.0373035385433166e-02  1.9071126502450197e-02  -1.3338297233102175e-02  4.5716890288447056e-03  5.0984636997512744e-03  -1.3325837537131362e-02  1.8117414919825416e-02  -1.8317090359056529e-02  1.3886128268291654e-02  -5.9124130368990203e-03  -3.6537511191608546e-03  1.2473171946780061e-02  -1.8385713169811191e-02  1.9934818956031025e-02  -1.6721323520121931e-02  9.5006788537071191e-03  -8.9668136055376817e-15  -9.5006788536899610e-03  1.6721323520106249e-02  -1.9934818956018278e-02  1.8385713169801258e-02  -1.2473171946773198e-02  3.6537511191571466e-03  5.9124130368994887e-03  -1.3886128268288236e-02  1.8317090359048341e-02  -1.8117414919812374e-02  1.3325837537114384e-02  -5.0984636997310649e-03  -4.5716890288657764e-03  1.3338297233121006e-02  -1.9071126502463641e-02  2.0373035385438623e-02  -1.6919122266327177e-02  9.5357102496929306e-03  -1.6540536920850469e-11  -9.3909923258576333e-03  1.6377606560526940e-02  -1.9285609673688302e-02  1.7432166898918671e-02  -1.1291197306587153e-02  2.3779912267754048e-03  3.0939055190178262e-03  -1.4740541062110578e-02  2.3254841510207108e-02  -2.6917093263258342e-02  2.5172840680609033e-02  -1.8762275147565767e-02  9.5357104600069503e-03  -2.5583325013836254e-10  -7.2939576388866261e-03  1.0373926770979194e-02  -8.3280740255663455e-03  1.5287915329475653e-03  8.4557573934895911e-03  -1.9240932053471365e-02  2.8203721155988730e-02  -3.3119377948616281e-02  3.2702084948804853e-02  -2.6918428953805768e-02  1.6997590646908343e-02  -5.1357438533672847e-03  -6.0336413725197297e-03  1.4075096480789097e-02  -1.7337938685518233e-02  1.5352207763630697e-02  -8.9377420326419987e-03  1.6269378426705076e-14  8.9377420326099358e-03  -1.5352207763600335e-02  1.7337938685490242e-02  -1.4075096480764580e-02  6.0336413724993657e-03  5.1357438533823048e-03  -1.6997590646916569e-02  2.6918428953805813e-02  -3.2702084948795472e-02  3.3119377948597005e-02  -2.8203721155959344e-02  1.9240932053433593e-02  -8.4557573934454719e-03  -1.5287915329945110e-03  8.3280740256121491e-03  -1.0373926771020515e-02  7.2939576389216302e-03  2.5580561155962356e-10  -9.5357104599869819e-03  1.8762275147553048e-02  -2.5172840680602524e-02  2.6917093263256500e-02  -2.3254841510208079e-02  1.4740541062111855e-02  -3.0939055190181896e-03  -3.6705391532221880e-03  1.7517258196704438e-02  -2.7926814898242881e-02  3.3006997740361754e-02  -3.2136546547890200e-02  2.6106469048579103e-02  -1.6919122664813033e-02  7.2939583858771901e-03  -5.1028882569562864e-10  -2.8228282738535001e-03  1.8873354121238080e-04  7.4900732244053865e-03  -1.8499901542393126e-02  3.0239142641731893e-02  -3.9848537613539146e-02  4.4905217528968353e-02  -4.4012084734372847e-02  3.7139483722509338e-02  -2.5636204984685707e-02  1.1907092626816976e-02  1.1645828596630106e-03  -1.0909901550431918e-02  1.5514206070215737e-02  -1.4448976161736233e-02  8.5909907410469909e-03  -1.9444893519029972e-14  -8.5909907410083152e-03  1.4448976161698549e-02  -1.5514206070179342e-02  1.0909901550397812e-02  -1.1645828596331125e-03  -1.1907092626840959e-02  2.5636204984701486e-02  -3.7139483722514466e-02  4.4012084734365707e-02  -4.4905217528947640e-02  3.9848537613504764e-02  -3.0239142641684348e-02  1.8499901542335273e-02  -7.4900732243405078e-03  -1.8873354128037253e-04  2.8228282739213512e-03  5.1022419255981615e-10  -7.2939583858181471e-03  1.6919122664761140e-02  -2.6106469048535585e-02  3.2136546547856096e-02  -3.3006997740336830e-02  2.7926814898226664e-02  -1.7517258196696278e-02  3.6705391532205834e-03  4.0231024291892629e-03  -1.9209424628530519e-02  3.0719440221030278e-02  -3.6527471606466903e-02  3.5964502807249332e-02  -2.9869094036328200e-02  2.0373035870813759e-02  -1.0373927635390872e-02  2.8228294362958955e-03  -6.5937918984587564e-10  2.9546125180042204e-03  -1.1244511017174165e-02  2.3039271081581141e-02  -3.5561598491871467e-02  4.5760004361137155e-02  -5.1049529120000658e-02  4.9940755548877933e-02  -4.2404436931499846e-02  2.9883203956229825e-02  -1.4947438137911183e-02  6.7873151324484193e-04  1.0069558375505100e-02  -1.5355340761284100e-02  1.4608799723994141e-02  -8.7596605757002850e-03  1.6845214269245159e-14  8.7596605756664146e-03  -1.4608799723959703e-02  1.5355340761249258e-02  -1.0069558375470369e-02  -6.7873151327801310e-04  1.4947438137940083e-02  -2.9883203956251318e-02  4.2404436931511538e-02  -4.9940755548876857e-02  5.1049529119985122e-02  -4.5760004361106450e-02  3.5561598491826038e-02  -2.3039271081522730e-02  1.1244511017105590e-02  -2.9546125179287920e-03  6.5930007552826795e-10  -2.8228294362162088e-03  1.0373927635313845e-02  -2.0373035870742327e-02  2.9869094036265028e-02  -3.5964502807196423e-02  3.6527471606426318e-02  -3.0719440221002457e-02  1.9209424628515465e-02  -4.0231024291862063e-03  -4.1108816028904973e-03  1.9619387325632856e-02  -3.1284470132090306e-02  3.6990144471640167e-02  -3.6041416448511707e-02  2.9322287844347334e-02  -1.9071126952054575e-02  8.3280748652670416e-03  -1.8873468717036626e-04  -2.9546112131355706e-03  -6.4333066110209630e-10  8.5915524086687591e-03  -2.0903968344397773e-02  3.4028494597444232e-02  -4.4768366215255935e-02  5.0414773088180848e-02  -4.9405812114478399e-02  4.1708487894337190e-02  -2.8831013016418071e-02  1.3462356595824601e-02  1.1735711638099966e-03  -1.2092477265152474e-02  1.7265139503239730e-02  -1.6100265946476386e-02  9.5777290611284045e-03  -8.1744370793932911e-15  -9.5777290611112880e-03  1.6100265946456742e-02  -1.7265139503216422e-02  1.2092477265125336e-02  -1.1735711637808897e-03  -1.3462356595853460e-02  2.8831013016443523e-02  -4.1708487894355474e-02  4.9405812114487059e-02  -5.0414773088177198e-02  4.4768366215238137e-02  -3.4028494597412397e-02  2.0903968344352430e-02  -8.5915524086118775e-03  6.4326386949994128e-10  2.9546112132095067e-03  1.8873468709248797e-04  -8.3280748651882661e-03  1.9071126951978993e-02  -2.9322287844278108e-02  3.6041416448452067e-02  -3.6990144471592649e-02  3.1284470132057103e-02  -1.9619387325614183e-02  4.1108816028867373e-03  3.9464263094242426e-03  -1.8808439319945924e-02  2.9733478262659287e-02  -3.4558989211305007e-02  3.2585394436615935e-02  -2.4738579923666956e-02  1.3338297532710264e-02  -1.5287922150220661e-03  -7.4900722433918565e-03  1.1244509885903581e-02  -8.5915513062779589e-03  -4.5295980453034051e-10  1.2560634005428126e-02  -2.6096302689408751e-02  3.7314177413171341e-02  -4.3421867915384979e-02  4.2806157066623989e-02  -3.5426517567874863e-02  2.2827881902244364e-02  -7.7695212062816920e-03  -6.4399627010735937e-03  1.6740220468332692e-02  -2.1055840151686902e-02  1.8793449302309775e-02  -1.0978699712777686e-02  -5.3266231666070919e-15  1.0978699712786068e-02  -1.8793449302313612e-02  2.1055840151683335e-02  -1.6740220468320872e-02  6.4399627010538769e-03  7.7695212063064820e-03  -2.2827881902271502e-02  3.5426517567900523e-02  -4.2806157066644784e-02  4.3421867915397733e-02  -3.7314177413173596e-02  2.6096302689399171e-02  -1.2560634005406749e-02  4.5292640197431758e-10  8.5915513063221649e-03  -1.1244509885957613e-02  7.4900722434531556e-03  1.5287922149568001e-03  -1.3338297532645069e-02  2.4738579923605210e-02  -3.2585394436561423e-02  3.4558989211260889e-02  -2.9733478262627698e-02  1.8808439319928146e-02  -3.9464263094207367e-03  -3.5919809996078239e-03  1.7079460993329184e-02  -2.6606940182463117e-02  3.0006260959973111e-02  -2.6591355573521210e-02  1.7322593990148707e-02  -4.5716891004878779e-03  -8.4557569615785529e-03  1.8499900830871580e-02  -2.3039270236787056e-02  2.0903967543243387e-02  -1.2560633412902436e-02  -1.3520888642830674e-10  1.3745691176407551e-02  -2.5338300032268432e-02  3.1943919006209145e-02  -3.1920918431815500e-02  2.5218930431957734e-02  -1.3391936573878493e-02  -7.7773002342297810e-04  1.3953238987680347e-02  -2.3051464713707025e-02  2.5989427524554194e-02  -2.2187856368424311e-02  1.2709699268511291e-02  1.9776176257380322e-14  -1.2709699268548888e-02  2.2187856368454571e-02  -2.5989427524573533e-02  2.3051464713713710e-02  -1.3953238987673880e-02  7.7773002340482443e-04  1.3391936573905087e-02  -2.5218930431989157e-02  3.1920918431847911e-02  -3.1943919006239246e-02  2.5338300032293096e-02  -1.3745691176424317e-02  1.3521649283511420e-10  1.2560633412905246e-02  -2.0903967543257431e-02  2.3039270236811897e-02  -1.8499900830905767e-02  8.4557569616195375e-03  4.5716891004435080e-03  -1.7322593990104579e-02  2.6591355573480795e-02  -3.0006260959939537e-02  2.6606940182438588e-02  -1.7079460993315219e-02  3.5919809996051038e-03  3.1440344837421101e-03  -1.4901778598485202e-02  2.2740536582752744e-02  -2.4522271531938821e-02  1.9587171816356649e-02  -8.9172868030014188e-03  -5.0984638787889905e-03  1.9240931902555280e-02  -3.0239142237028713e-02  3.5561597974706975e-02  -3.4028494139338887e-02  2.6096302449743022e-02  -1.3745691262998731e-02  2.2108476654606910e-10  1.1808861466435911e-02  -1.8848936493049570e-02  1.9474951186344274e-02  -1.3626610847764935e-02  2.8418162509100948e-03  1.0118384181716291e-02  -2.1942062325377661e-02  2.9572719413218311e-02  -3.0953922882938158e-02  2.5531519310528699e-02  -1.4391498519843157e-02  -3.2488685605678491e-14  1.4391498519905149e-02  -2.5531519310582000e-02  3.0953922882978400e-02  -2.9572719413242372e-02  2.1942062325384065e-02  -1.0118384181705947e-02  -2.8418162509346629e-03  1.3626610847799805e-02  -1.9474951186386036e-02  1.8848936493094375e-02  -1.1808861466480256e-02  -2.2104359669634155e-10  1.3745691262963707e-02  -2.6096302449716204e-02  3.4028494139321838e-02  -3.5561597974700598e-02  3.0239142237032460e-02  -1.9240931902567666e-02  5.0984638788073274e-03  8.9172868029800748e-03  -1.9587171816335104e-02  2.4522271531920031e-02  -2.2740536582738405e-02  1.4901778598476908e-02  -3.1440344837402640e-03  -2.7097424012319940e-03  1.2796500527676849e-02  -1.9061163137086497e-02  1.9425206355366025e-02  -1.3261755496380995e-02  1.5560346009187021e-03  1.3325837928718906e-02  -2.8203721248854965e-02  3.9848537478794618e-02  -4.5760004133575873e-02  4.4768366059068053e-02  -3.7314177480412061e-02  2.5338300424194382e-02  -1.1808862207113980e-02  5.1431284517206227e-10  7.3025564280467430e-03  -8.4762885156721597e-03  3.4533215429523060e-03  6.2664535374723825e-03  -1.7983711832086583e-02  2.8460023231513937e-02  -3.4709850053524102e-02  3.4731918880207817e-02  -2.8002372897220504e-02  1.5609911800841605e-02  4.0159677052929718e-14  -1.5609911800918594e-02  2.8002372897288429e-02  -3.4731918880261531e-02  3.4709850053559956e-02  -2.8460023231530161e-02  1.7983711832082933e-02  -6.2664535374512675e-03  -3.4533215429877954e-03  8.4762885157183693e-03  -7.3025564281000892e-03  -5.1425563772920068e-10  1.1808862207056672e-02  -2.5338300424139645e-02  3.7314177480363253e-02  -4.4768366059026635e-02  4.5760004133543628e-02  -3.9848537478771422e-02  2.8203721248840758e-02  -1.3325837928712355e-02  -1.5560346009193386e-03  1.3261755496378477e-02  -1.9425206355362115e-02  1.9061163137082865e-02  -1.2796500527674214e-02  2.7097424012315751e-03  2.3809468654180485e-03  -1.1210169575170473e-02  1.6362169337467446e-02  -1.5841425384460546e-02  9.0553649956448944e-03  3.0307236849921306e-03  -1.8117415434156962e-02  3.3119378190181063e-02  -4.4905217564167051e-02  5.1049529076592236e-02  -5.0414773122170568e-02  4.3421868170918004e-02  -3.1943919578233691e-02  1.8848937401849723e-02  -7.3025576118600308e-03  6.6377633841874054e-10  1.4863486865966762e-03  2.9145622294342180e-03  -1.1759686474773970e-02  2.2447868103747930e-02  -3.1858110235124276e-02  3.7115118410423392e-02  -3.6296212803365598e-02  2.8907915958883708e-02  -1.6016404236065426e-02  -4.0755836744290882e-14  1.6016404236143981e-02  -2.8907915958953898e-02  3.6296212803422441e-02  -3.7115118410463478e-02  3.1858110235145509e-02  -2.2447868103749789e-02  1.1759686474757662e-02  -2.9145622294024158e-03  -1.4863486866408652e-03  -6.6372298183782626e-10  7.3025576118007571e-03  -1.8848937401787766e-02  3.1943919578171921e-02  -4.3421868170859135e-02  5.0414773122116494e-02  -5.1049529076544427e-02  4.4905217564126701e-02  -3.3119378190148589e-02  1.8117415434132124e-02  -3.0307236849742023e-03  -9.0553649956569820e-03  1.5841425384468616