<?xml version="1.0"?>
<VTKFile type="UnstructuredGrid"  version="0.1"  >
<UnstructuredGrid>
<Piece  NumberOfPoints="2601" NumberOfCells="5000">
<Points>
<DataArray  type="Float64"  NumberOfComponents="3"  format="ascii">-10 -10 0  -9.6 -10 0  -9.199999999999999 -10 0  -8.800000000000001 -10 0  -8.4 -10 0  -8 -10 0  -7.6 -10 0  -7.2 -10 0  -6.8 -10 0  -6.4 -10 0  -6 -10 0  -5.6 -10 0  -5.2 -10 0  -4.8 -10 0  -4.4 -10 0  -4 -10 0  -3.6 -10 0  -3.2 -10 0  -2.8 -10 0  -2.4 -10 0  -2 -10 0  -1.6 -10 0  -1.199999999999999 -10 0  -0.8000000000000007 -10 0  -0.4000000000000004 -10 0  0 -10 0  0.4000000000000004 -10 0  0.8000000000000007 -10 0  1.199999999999999 -10 0  1.6 -10 0  2 -10 0  2.4 -10 0  2.800000000000001 -10 0  3.199999999999999 -10 0  3.6 -10 0  4 -10 0  4.4 -10 0  4.800000000000001 -10 0  5.199999999999999 -10 0  5.6 -10 0  6 -10 0  6.399999999999999 -10 0  6.800000000000001 -10 0  7.199999999999999 -10 0  7.600000000000001 -10 0  8 -10 0  8.399999999999999 -10 0  8.800000000000001 -10 0  9.199999999999999 -10 0  9.600000000000001 -10 0  10 -10 0  -10 -9.6 0  -9.6 -9.6 0  -9.199999999999999 -9.6 0  -8.800000000000001 -9.6 0  -8.4 -9.6 0  -8 -9.6 0  -7.6 -9.6 0  -7.2 -9.6 0  -6.8 -9.6 0  -6.4 -9.6 0  -6 -9.6 0  -5.6 -9.6 0  -5.2 -9.6 0  -4.8 -9.6 0  -4.4 -9.6 0  -4 -9.6 0  -3.6 -9.6 0  -3.2 -9.6 0  -2.8 -9.6 0  -2.4 -9.6 0  -2 -9.6 0  -1.6 -9.6 0  -1.199999999999999 -9.6 0  -0.8000000000000007 -9.6 0  -0.4000000000000004 -9.6 0  0 -9.6 0  0.4000000000000004 -9.6 0  0.8000000000000007 -9.6 0  1.199999999999999 -9.6 0  1.6 -9.6 0  2 -9.6 0  2.4 -9.6 0  2.800000000000001 -9.6 0  3.199999999999999 -9.6 0  3.6 -9.6 0  4 -9.6 0  4.4 -9.6 0  4.800000000000001 -9.6 0  5.199999999999999 -9.6 0  5.6 -9.6 0  6 -9.6 0  6.399999999999999 -9.6 0  6.800000000000001 -9.6 0  7.199999999999999 -9.6 0  7.600000000000001 -9.6 0  8 -9.6 0  8.399999999999999 -9.6 0  8.800000000000001 -9.6 0  9.199999999999999 -9.6 0  9.600000000000001 -9.6 0  10 -9.6 0  -10 -9.199999999999999 0  -9.6 -9.199999999999999 0  -9.199999999999999 -9.199999999999999 0  -8.800000000000001 -9.199999999999999 0  -8.4 -9.199999999999999 0  -8 -9.199999999999999 0  -7.6 -9.199999999999999 0  -7.2 -9.199999999999999 0  -6.8 -9.199999999999999 0  -6.4 -9.199999999999999 0  -6 -9.199999999999999 0  -5.6 -9.199999999999999 0  -5.2 -9.199999999999999 0  -4.8 -9.199999999999999 0  -4.4 -9.199999999999999 0  -4 -9.199999999999999 0  -3.6 -9.199999999999999 0  -3.2 -9.199999999999999 0  -2.8 -9.199999999999999 0  -2.4 -9.199999999999999 0  -2 -9.199999999999999 0  -1.6 -9.199999999999999 0  -1.199999999999999 -9.199999999999999 0  -0.8000000000000007 -9.199999999999999 0  -0.4000000000000004 -9.199999999999999 0  0 -9.199999999999999 0  0.4000000000000004 -9.199999999999999 0  0.8000000000000007 -9.199999999999999 0  1.199999999999999 -9.199999999999999 0  1.6 -9.199999999999999 0  2 -9.199999999999999 0  2.4 -9.199999999999999 0  2.800000000000001 -9.199999999999999 0  3.199999999999999 -9.199999999999999 0  3.6 -9.199999999999999 0  4 -9.199999999999999 0  4.4 -9.199999999999999 0  4.800000000000001 -9.199999999999999 0  5.199999999999999 -9.199999999999999 0  5.6 -9.199999999999999 0  6 -9.199999999999999 0  6.399999999999999 -9.199999999999999 0  6.800000000000001 -9.199999999999999 0  7.199999999999999 -9.199999999999999 0  7.600000000000001 -9.199999999999999 0  8 -9.199999999999999 0  8.399999999999999 -9.199999999999999 0  8.800000000000001 -9.199999999999999 0  9.199999999999999 -9.199999999999999 0  9.600000000000001 -9.199999999999999 0  10 -9.199999999999999 0  -10 -8.800000000000001 0  -9.6 -8.800000000000001 0  -9.199999999999999 -8.800000000000001 0  -8.800000000000001 -8.800000000000001 0  -8.4 -8.800000000000001 0  -8 -8.800000000000001 0  -7.6 -8.800000000000001 0  -7.2 -8.800000000000001 0  -6.8 -8.800000000000001 0  -6.4 -8.800000000000001 0  -6 -8.800000000000001 0  -5.6 -8.800000000000001 0  -5.2 -8.800000000000001 0  -4.8 -8.800000000000001 0  -4.4 -8.800000000000001 0  -4 -8.800000000000001 0  -3.6 -8.800000000000001 0  -3.2 -8.800000000000001 0  -2.8 -8.800000000000001 0  -2.4 -8.800000000000001 0  -2 -8.800000000000001 0  -1.6 -8.800000000000001 0  -1.199999999999999 -8.800000000000001 0  -0.8000000000000007 -8.800000000000001 0  -0.4000000000000004 -8.800000000000001 0  0 -8.800000000000001 0  0.4000000000000004 -8.800000000000001 0  0.8000000000000007 -8.800000000000001 0  1.199999999999999 -8.800000000000001 0  1.6 -8.800000000000001 0  2 -8.800000000000001 0  2.4 -8.800000000000001 0  2.800000000000001 -8.800000000000001 0  3.199999999999999 -8.800000000000001 0  3.6 -8.800000000000001 0  4 -8.800000000000001 0  4.4 -8.800000000000001 0  4.800000000000001 -8.800000000000001 0  5.199999999999999 -8.800000000000001 0  5.6 -8.800000000000001 0  6 -8.800000000000001 0  6.399999999999999 -8.800000000000001 0  6.800000000000001 -8.800000000000001 0  7.199999999999999 -8.800000000000001 0  7.600000000000001 -8.800000000000001 0  8 -8.800000000000001 0  8.399999999999999 -8.800000000000001 0  8.800000000000001 -8.800000000000001 0  9.199999999999999 -8.800000000000001 0  9.600000000000001 -8.800000000000001 0  10 -8.800000000000001 0  -10 -8.4 0  -9.6 -8.4 0  -9.199999999999999 -8.4 0  -8.800000000000001 -8.4 0  -8.4 -8.4 0  -8 -8.4 0  -7.6 -8.4 0  -7.2 -8.4 0  -6.8 -8.4 0  -6.4 -8.4 0  -6 -8.4 0  -5.6 -8.4 0  -5.2 -8.4 0  -4.8 -8.4 0  -4.4 -8.4 0  -4 -8.4 0  -3.6 -8.4 0  -3.2 -8.4 0  -2.8 -8.4 0  -2.4 -8.4 0  -2 -8.4 0  -1.6 -8.4 0  -1.199999999999999 -8.4 0  -0.8000000000000007 -8.4 0  -0.4000000000000004 -8.4 0  0 -8.4 0  0.4000000000000004 -8.4 0  0.8000000000000007 -8.4 0  1.199999999999999 -8.4 0  1.6 -8.4 0  2 -8.4 0  2.4 -8.4 0  2.800000000000001 -8.4 0  3.199999999999999 -8.4 0  3.6 -8.4 0  4 -8.4 0  4.4 -8.4 0  4.800000000000001 -8.4 0  5.199999999999999 -8.4 0  5.6 -8.4 0  6 -8.4 0  6.399999999999999 -8.4 0  6.800000000000001 -8.4 0  7.199999999999999 -8.4 0  7.600000000000001 -8.4 0  8 -8.4 0  8.399999999999999 -8.4 0  8.800000000000001 -8.4 0  9.199999999999999 -8.4 0  9.600000000000001 -8.4 0  10 -8.4 0  -10 -8 0  -9.6 -8 0  -9.199999999999999 -8 0  -8.800000000000001 -8 0  -8.4 -8 0  -8 -8 0  -7.6 -8 0  -7.2 -8 0  -6.8 -8 0  -6.4 -8 0  -6 -8 0  -5.6 -8 0  -5.2 -8 0  -4.8 -8 0  -4.4 -8 0  -4 -8 0  -3.6 -8 0  -3.2 -8 0  -2.8 -8 0  -2.4 -8 0  -2 -8 0  -1.6 -8 0  -1.199999999999999 -8 0  -0.8000000000000007 -8 0  -0.4000000000000004 -8 0  0 -8 0  0.4000000000000004 -8 0  0.8000000000000007 -8 0  1.199999999999999 -8 0  1.6 -8 0  2 -8 0  2.4 -8 0  2.800000000000001 -8 0  3.199999999999999 -8 0  3.6 -8 0  4 -8 0  4.4 -8 0  4.800000000000001 -8 0  5.199999999999999 -8 0  5.6 -8 0  6 -8 0  6.399999999999999 -8 0  6.800000000000001 -8 0  7.199999999999999 -8 0  7.600000000000001 -8 0  8 -8 0  8.399999999999999 -8 0  8.800000000000001 -8 0  9.199999999999999 -8 0  9.600000000000001 -8 0  10 -8 0  -10 -7.6 0  -9.6 -7.6 0  -9.199999999999999 -7.6 0  -8.800000000000001 -7.6 0  -8.4 -7.6 0  -8 -7.6 0  -7.6 -7.6 0  -7.2 -7.6 0  -6.8 -7.6 0  -6.4 -7.6 0  -6 -7.6 0  -5.6 -7.6 0  -5.2 -7.6 0  -4.8 -7.6 0  -4.4 -7.6 0  -4 -7.6 0  -3.6 -7.6 0  -3.2 -7.6 0  -2.8 -7.6 0  -2.4 -7.6 0  -2 -7.6 0  -1.6 -7.6 0  -1.199999999999999 -7.6 0  -0.8000000000000007 -7.6 0  -0.4000000000000004 -7.6 0  0 -7.6 0  0.4000000000000004 -7.6 0  0.8000000000000007 -7.6 0  1.199999999999999 -7.6 0  1.6 -7.6 0  2 -7.6 0  2.4 -7.6 0  2.800000000000001 -7.6 0  3.199999999999999 -7.6 0  3.6 -7.6 0  4 -7.6 0  4.4 -7.6 0  4.800000000000001 -7.6 0  5.199999999999999 -7.6 0  5.6 -7.6 0  6 -7.6 0  6.399999999999999 -7.6 0  6.800000000000001 -7.6 0  7.199999999999999 -7.6 0  7.600000000000001 -7.6 0  8 -7.6 0  8.399999999999999 -7.6 0  8.800000000000001 -7.6 0  9.199999999999999 -7.6 0  9.600000000000001 -7.6 0  10 -7.6 0  -10 -7.2 0  -9.6 -7.2 0  -9.199999999999999 -7.2 0  -8.800000000000001 -7.2 0  -8.4 -7.2 0  -8 -7.2 0  -7.6 -7.2 0  -7.2 -7.2 0  -6.8 -7.2 0  -6.4 -7.2 0  -6 -7.2 0  -5.6 -7.2 0  -5.2 -7.2 0  -4.8 -7.2 0  -4.4 -7.2 0  -4 -7.2 0  -3.6 -7.2 0  -3.2 -7.2 0  -2.8 -7.2 0  -2.4 -7.2 0  -2 -7.2 0  -1.6 -7.2 0  -1.199999999999999 -7.2 0  -0.8000000000000007 -7.2 0  -0.4000000000000004 -7.2 0  0 -7.2 0  0.4000000000000004 -7.2 0  0.8000000000000007 -7.2 0  1.199999999999999 -7.2 0  1.6 -7.2 0  2 -7.2 0  2.4 -7.2 0  2.800000000000001 -7.2 0  3.199999999999999 -7.2 0  3.6 -7.2 0  4 -7.2 0  4.4 -7.2 0  4.800000000000001 -7.2 0  5.199999999999999 -7.2 0  5.6 -7.2 0  6 -7.2 0  6.399999999999999 -7.2 0  6.800000000000001 -7.2 0  7.199999999999999 -7.2 0  7.600000000000001 -7.2 0  8 -7.2 0  8.399999999999999 -7.2 0  8.800000000000001 -7.2 0  9.199999999999999 -7.2 0  9.600000000000001 -7.2 0  10 -7.2 0  -10 -6.8 0  -9.6 -6.8 0  -9.199999999999999 -6.8 0  -8.800000000000001 -6.8 0  -8.4 -6.8 0  -8 -6.8 0  -7.6 -6.8 0  -7.2 -6.8 0  -6.8 -6.8 0  -6.4 -6.8 0  -6 -6.8 0  -5.6 -6.8 0  -5.2 -6.8 0  -4.8 -6.8 0  -4.4 -6.8 0  -4 -6.8 0  -3.6 -6.8 0  -3.2 -6.8 0  -2.8 -6.8 0  -2.4 -6.8 0  -2 -6.8 0  -1.6 -6.8 0  -1.199999999999999 -6.8 0  -0.8000000000000007 -6.8 0  -0.4000000000000004 -6.8 0  0 -6.8 0  0.4000000000000004 -6.8 0  0.8000000000000007 -6.8 0  1.199999999999999 -6.8 0  1.6 -6.8 0  2 -6.8 0  2.4 -6.8 0  2.800000000000001 -6.8 0  3.199999999999999 -6.8 0  3.6 -6.8 0  4 -6.8 0  4.4 -6.8 0  4.800000000000001 -6.8 0  5.199999999999999 -6.8 0  5.6 -6.8 0  6 -6.8 0  6.399999999999999 -6.8 0  6.800000000000001 -6.8 0  7.199999999999999 -6.8 0  7.600000000000001 -6.8 0  8 -6.8 0  8.399999999999999 -6.8 0  8.800000000000001 -6.8 0  9.199999999999999 -6.8 0  9.600000000000001 -6.8 0  10 -6.8 0  -10 -6.4 0  -9.6 -6.4 0  -9.199999999999999 -6.4 0  -8.800000000000001 -6.4 0  -8.4 -6.4 0  -8 -6.4 0  -7.6 -6.4 0  -7.2 -6.4 0  -6.8 -6.4 0  -6.4 -6.4 0  -6 -6.4 0  -5.6 -6.4 0  -5.2 -6.4 0  -4.8 -6.4 0  -4.4 -6.4 0  -4 -6.4 0  -3.6 -6.4 0  -3.2 -6.4 0  -2.8 -6.4 0  -2.4 -6.4 0  -2 -6.4 0  -1.6 -6.4 0  -1.199999999999999 -6.4 0  -0.8000000000000007 -6.4 0  -0.4000000000000004 -6.4 0  0 -6.4 0
[...]
<PointData  Scalars="f_137"> 
<DataArray  type="Float64"  Name="f_137"  format="ascii">-5.0044598926859511e-13  1.2553123387154506e-06  -1.4870238032018339e-05  4.9740115335175087e-05  -1.1310816046041354e-04  2.0997408127310492e-04  -3.4264844227058650e-04  5.1048236204261110e-04  -7.0979117309268828e-04  9.3397854491137418e-04  -1.1738550139424519e-03  1.4181326553372655e-03  -1.6540665268821302e-03  1.8682042031884800e-03  -2.0471977760360030e-03  2.1786285566807412e-03  -2.2517936375709468e-03  2.2584055252312073e-03  -2.1931611211136667e-03  2.0541440954101233e-03  -1.8430346959728834e-03  1.5651126488380861e-03  -1.2290513267450920e-03  8.4651401971160673e-04  -4.3157516050555683e-04  -1.8992639748239682e-15  4.3157516050920544e-04  -8.4651401971510664e-04  1.2290513267480862e-03  -1.5651126488408259e-03  1.8430346959749837e-03  -2.0541440954115640e-03  2.1931611211143463e-03  -2.2584055252309492e-03  2.2517936375696136e-03  -2.1786285566785558e-03  2.0471977760329516e-03  -1.8682042031846530e-03  1.6540665268776082e-03  -1.4181326553323723e-03  1.1738550139371385e-03  -9.3397854490593984e-04  7.0979117308722270e-04  -5.1048236203757617e-04  3.4264844226577216e-04  -2.0997408126902843e-04  1.1310816045708063e-04  -4.9740115332582421e-05  1.4870238030250827e-05  -1.2553123377223345e-06  5.0031253705770754e-13  -1.2553054099535655e-06  -1.7205756926860035e-11  6.2577776009948270e-05  -2.3061839302996438e-04  5.4007546207467106e-04  -1.0157850497826760e-03  1.6692570719371094e-03  -2.4973352960280231e-03  3.4818182728784241e-03  -4.5900734149576855e-03  5.7766142320297368e-03  -6.9855502540729164e-03  8.1537641605682436e-03  -9.2146245025024019e-03  1.0102008011357907e-02  -1.0754384978283519e-02  1.1118715842341240e-02  -1.1153917301045313e-02  1.0833681345004465e-02  -1.0148469097964683e-02  9.1065508647545784e-03  -7.7340213221851759e-03  6.0737808065126579e-03  -4.1835363523124430e-03  2.1329356741774260e-03  9.0851413785437530e-15  -2.1329356741954077e-03  4.1835363523294571e-03  -6.0737808065281377e-03  7.7340213221986451e-03  -9.1065508647651151e-03  1.0148469097971572e-02  -1.0833681345007479e-02  1.1153917301043894e-02  -1.1118715842335087e-02  1.0754384978272750e-02  -1.0102008011342934e-02  9.2146245024833165e-03  -8.1537641605461970e-03  6.9855502540484308e-03  -5.7766142320038166e-03  4.5900734149310340e-03  -3.4818182728520767e-03  2.4973352960028228e-03  -1.6692570719138568e-03  1.0157850497623082e-03  -5.4007546205788815e-04  2.3061839301705868e-04  -6.2577776001338919e-05  1.7201098267450233e-11  1.2553054108449374e-06  1.4870225779275548e-05  -6.2577715441575429e-05  -5.3270195608353778e-11  2.5230817906437956e-04  -7.5917065696051191e-04  1.5655546056222631e-03  -2.6926223061863271e-03  4.1353324707185972e-03  -5.8617554399917086e-03  7.8141598839580936e-03  -9.9118176673542203e-03  1.2055365707398421e-02  -1.4132465564438141e-02  1.6024419245691899e-02  -1.7613338370345615e-02  1.8789427256972097e-02  -1.9457930944112471e-02  1.9545317269356172e-02  -1.9004306834509242e-02  1.7817433258979255e-02  -1.5998904382958697e-02  1.3594637624437187e-02  -1.0680453235342056e-02  7.3585209623247159e-03  -3.7522617385874046e-03  -1.6007470816796137e-14  3.7522617386188239e-03  -7.3585209623547596e-03  1.0680453235369695e-02  -1.3594637624461108e-02  1.5998904382977453e-02  -1.7817433258992009e-02  1.9004306834514685e-02  -1.9545317269353792e-02  1.9457930944101805e-02  -1.8789427256953439e-02  1.7613338370319295e-02  -1.6024419245658627e-02  1.4132465564399382e-02  -1.2055365707355549e-02  9.9118176673084913e-03  -7.8141598839114833e-03  5.8617554399454088e-03  -4.1353324706743331e-03  2.6926223061455234e-03  -1.5655546055864656e-03  7.5917065693086451e-04  -2.5230817904175752e-04  5.3254777717074836e-11  6.2577715449812723e-05  -1.4870225781001640e-05  -4.9740098256283164e-05  2.3061830862813087e-04  -2.5230803065662776e-04  -1.0331080482585095e-10  6.2024076032255989e-04  -1.6739947917609030e-03  3.1928447564779964e-03  -5.1709376078019204e-03  7.5639893566914066e-03  -1.0290813988034329e-02  1.3237300979167789e-02  -1.6262612215660770e-02  1.9207229420725128e-02  -2.1902366061788452e-02  2.4180170336637243e-02  -2.5884093705015657e-02  2.6878785784075078e-02  -2.7058902161679405e-02  2.6356275268062453e-02  -2.4744996018801587e-02  2.2244079540155670e-02  -1.8917534222194606e-02  1.4871810670368810e-02  -1.0250766191170440e-02  5.2284314894418867e-03  2.2247789746314235e-14  -5.2284314894859279e-03  1.0250766191212637e-02  -1.4871810670407942e-02  1.8917534222228690e-02  -2.2244079540182923e-02  2.4744996018820128e-02  -2.6356275268070922e-02  2.7058902161676897e-02  -2.6878785784061266e-02  2.5884093704990369e-02  -2.4180170336601071e-02  2.1902366061742628e-02  -1.9207229420671219e-02  1.6262612215600963e-02  -1.3237300979104253e-02  1.0290813987969150e-02  -7.5639893566269564e-03  5.1709376077403463e-03  -3.1928447564214101e-03  1.6739947917109961e-03  -6.2024076028154983e-04  1.0327922295393660e-10  2.5230803067813313e-04  -2.3061830863959796e-04  4.9740098258594398e-05  1.1310813920179000e-04  -5.4007535702629654e-04  7.5917047232950427e-04  -6.2024050344886353e-04  -1.5951696064454116e-10  1.1883367504059528e-03  -2.9877755865091431e-03  5.3930982499166792e-03  -8.3495501422472997e-03  1.1754769445516506e-02  -1.5463859980843741e-02  1.9297314515867778e-02  -2.3051315914022794e-02  2.6509793236083518e-02  -2.9457497813423425e-02  3.1693297379991124e-02  -3.3042868762828685e-02  3.3370002536616428e-02  -3.2585814483263711e-02  3.0655283709088516e-02  -2.7600698219319379e-02  2.3501775775276897e-02  -1.8492429496004097e-02  1.2754351540777460e-02  -6.5077818059512431e-03  -2.8163606245782828e-14  6.5077818060070916e-03  -1.2754351540831127e-02  1.8492429496053790e-02  -2.3501775775320546e-02  2.7600698219354451e-02  -3.0655283709112944e-02  3.2585814483275584e-02  -3.3370002536614540e-02  3.3042868762812372e-02  -3.1693297379960413e-02  2.9457497813379002e-02  -2.6509793236027111e-02  2.3051315913956160e-02  -1.9297314515793869e-02  1.5463859980765287e-02  -1.1754769445436143e-02  8.3495501421675389e-03  -5.3930982498405049e-03  2.9877755864388916e-03  -1.1883367503442801e-03  1.5946595433780872e-10  6.2024050348774790e-04  -7.5917047235607665e-04  5.4007535704055857e-04  -1.1310813920467353e-04  -2.0997405662043713e-04  1.0157849279752629e-03  -1.5655543916562301e-03  1.6739944943477687e-03  -1.1883363815054812e-03  -2.1290905012250304e-10  1.9465770071379891e-03  -4.6485238018562644e-03  8.0429059570187086e-03  -1.2009001254976703e-02  1.6374370621108848e-02  -2.0924369839511004e-02  2.5414533478971338e-02  -2.9585081096220392e-02  3.3176660633838798e-02  -3.5946363173197451e-02  3.7683021883546094e-02  -3.8220847511374348e-02  3.7450550716889672e-02  -3.5327252021745685e-02  3.1874673882615279e-02  -2.7185334577098805e-02  2.1416706369936436e-02  -1.4783545916662295e-02  7.5468379838308716e-03  3.3641870846236135e-14  -7.5468379838976403e-03  1.4783545916726445e-02  -2.1416706369995847e-02  2.7185334577150846e-02  -3.1874673882657585e-02  3.5327252021775390e-02  -3.7450550716904660e-02  3.8220847511373189e-02  -3.7683021883528234e-02  3.5946363173162743e-02  -3.3176660633788109e-02  2.9585081096155617e-02  -2.5414533478895125e-02  2.0924369839426315e-02  -1.6374370621019083e-02  1.2009001254884541e-02  -8.0429059569273077e-03  4.6485238017687329e-03  -1.9465770070576018e-03  2.1283848758035671e-10  1.1883363815636729e-03  -1.6739944943923587e-03  1.5655543916866684e-03  -1.0157849279919936e-03  2.0997405662368394e-04  3.4264841511114351e-04  -1.6692569377611416e-03  2.6926220706622954e-03  -3.1928444294854010e-03  2.9877751816015357e-03  -1.9465765408102822e-03  -2.5459859877298551e-10  2.8532869318931005e-03  -6.5447418496005676e-03  1.0938514830763964e-02  -1.5838400782789232e-02  2.0998775609189609e-02  -2.6138858508458873e-02  3.0959435476735644e-02  -3.5161022643727384e-02  3.8462354667920098e-02  -4.0618058624209329e-02  4.1434419235751162e-02  -4.0782254207680835e-02  3.8606091930105391e-02  -3.4929067312417163e-02  2.9853211288614252e-02  -2.3555089652441869e-02  1.6277030141642557e-02  -8.3144456924468778e-03  -3.8526677801451655e-14  8.3144456925230703e-03  -1.6277030141715942e-02  2.3555089652509808e-02  -2.9853211288673916e-02  3.4929067312465610e-02  -3.8606091930139814e-02  4.0782254207699230e-02  -4.1434419235751641e-02  4.0618058624191246e-02  -3.8462354667883614e-02  3.5161022643672976e-02  -3.0959435476665673e-02  2.6138858508376054e-02  -2.0998775609097475e-02  1.5838400782691373e-02  -1.0938514830664166e-02  6.5447418495020440e-03  -2.8532869317990871e-03  2.5451202940490789e-10  1.9465765408862034e-03  -2.9877751816644472e-03  3.1928444295339191e-03  -2.6926220706958741e-03  1.6692569377796138e-03  -3.4264841511493432e-04  -5.1048233332083451e-04  2.4973351541552405e-03  -4.1353322219075941e-03  5.1709372628756948e-03  -5.3930978237112541e-03  4.6485233124057782e-03  -2.8532863994469473e-03  -2.7703661659581361e-10  3.8399052340223820e-03  -8.5189656753880631e-03  1.3821394642040838e-02  -1.9475254275330613e-02  2.5168362583144567e-02  -3.0566966856894685e-02  3.5336042006582184e-02  -3.9159967402419553e-02  4.1762307854479187e-02  -4.2923474920556065e-02  4.2495170763762462e-02  -4.0410710591623537e-02  3.6690569425999402e-02  -3.1442789258991397e-02  2.4858195720175908e-02  -1.7200689983506524e-02  8.7931823226490343e-03  4.2494835993725934e-14  -8.7931823227329602e-03  1.7200689983587099e-02  -2.4858195720250418e-02  3.1442789259057094e-02  -3.6690569426052880e-02  4.0410710591662291e-02  -4.2495170763784243e-02  4.2923474920558966e-02  -4.1762307854462249e-02  3.9159967402382902e-02  -3.5336042006526798e-02  3.0566966856822232e-02  -2.5168362583058483e-02  1.9475254275234499e-02  -1.3821394641939032e-02  8.5189656752844411e-03  -3.8399052339206895e-03  2.7693992157866570e-10  2.8532863995356446e-03  -4.6485233124835146e-03  5.3930978237755984e-03  -5.1709372629256244e-03  4.1353322219422591e-03  -2.4973351541744122e-03  5.1048233332470446e-04  7.0979114376261746e-04  -3.4818181280293430e-03  5.8617551862451675e-03  -7.5639890055768030e-03  8.3495497095543124e-03  -8.0429054619153579e-03  6.5447413135681651e-03  -3.8399046796709180e-03  -2.7508177471493272e-10  4.8195548432146441e-03  -1.0387846027358510e-02  1.6411671663299359e-02  -2.2552832689260276e-02  2.8448459189036573e-02  -3.3733125896426970e-02  3.8061398441806657e-02  -4.1129420861043334e-02  4.2694209732559142e-02  -4.2589457446657444e-02  4.0736858157987943e-02  -3.7152241987739344e-02  3.1946119328311248e-02  -2.5318578230082198e-02  1.7548822852540513e-02  -8.9799686312338860e-03  -4.5391321440485343e-14  8.9799686313235746e-03  -1.7548822852626690e-02  2.5318578230161894e-02  -3.1946119328381505e-02  3.7152241987797270e-02  -4.0736858158030805e-02  4.2589457446682411e-02  -4.2694209732564929e-02  4.1129420861028672e-02  -3.8061398441771359e-02  3.3733125896372083e-02  -2.8448459188964340e-02  2.2552832689173716e-02  -1.6411671663202784e-02  1.0387846027256405e-02  -4.8195548431112399e-03  2.7498056758149235e-10  3.8399046797664626e-03  -6.5447413136553220e-03  8.0429054619913266e-03  -8.3495497096173644e-03  7.5639890056253666e-03  -5.8617551862787682e-03  3.4818181280476868e-03  -7.0979114376643862e-04  -9.3397851589094576e-04  4.5900732716726671e-03  -7.8141596333012476e-03  1.0290813641999224e-02  -1.1754769020512692e-02  1.2009000770893301e-02  -1.0938514309842952e-02  8.5189651409699422e-03  -4.8195543184373964e-03  -2.4673803545334156e-10  5.6982491384556140e-03  -1.1966028521796776e-02  1.8444858701641639e-02  -2.4748600727954061e-02  3.0487043511737848e-02  -3.5289971485288757e-02  3.8830229686253499e-02  -4.0844361364523692e-02  4.1149539272311714e-02  -3.9655736756709893e-02  3.6372374824179744e-02  -3.1409018668879241e-02  2.4970061017040499e-02  -1.7343697664424985e-02  8.8858501385596696e-03  4.7321547300342520e-14  -8.8858501386530203e-03  1.7343697664514719e-02  -2.4970061017123738e-02  3.1409018668952592e-02  -3.6372374824240536e-02  3.9655736756755690e-02  -4.1149539272340045e-02  4.0844361364532351e-02  -3.8830229686241696e-02  3.5289971485256200e-02  -3.0487043511685626e-02  2.4748600727884183e-02  -1.8444858701557657e-02  1.1966028521702759e-02  -5.6982491383565405e-03  2.4663827427758983e-10  4.8195543185340405e-03  -8.5189651410606266e-03  1.0938514309924903e-02  -1.2009000770964409e-02  1.1754769020571196e-02  -1.0290813642044283e-02  7.8141596333322766e-03  -4.5900732716898079e-03  9.3397851589444188e-04  1.1738549860707702e-03  -5.7766140944578480e-03  9.9118174271093148e-03  -1.3237300648469601e-02  1.5463859576391190e-02  -1.6374370163108030e-02  1.5838400293781196e-02  -1.3821394145601573e-02  1.0387845546747014e-02  -5.6982486952953000e-03  -1.9346525655128492e-10  6.3872020063539198e-03  -1.3090565166245115e-02  1.9706851422428222e-02  -2.5827066861358258e-02  3.1061679385985756e-02  -3.5064808821922096e-02  3.7555896447363180e-02  -3.8337513416363857e-02  3.7308202886703085e-02  -3.4469554215081813e-02  2.9927060680643738e-02  -2.3884693124939401e-02  1.6633507217102331e-02  -8.5349680577053756e-03  -4.7630923447176305e-14  8.5349680577993890e-03  -1.6633507217192874e-02  2.3884693125023379e-02  -2.9927060680718199e-02  3.4469554215143930e-02  -3.7308202886750422e-02  3.8337513416394166e-02  -3.7555896447374601e-02  3.5064808821913547e-02  -3.1061679385957157e-02  2.5827066861310536e-02  -1.9706851422363305e-02  1.3090565166166490e-02  -6.3872020062660613e-03  1.9337285677075841e-10  5.6982486953875630e-03  -1.0387845546835717e-02  1.3821394145683716e-02  -1.5838400293854849e-02  1.6374370163171153e-02  -1.5463859576442873e-02  1.3237300648509115e-02  -9.9118174271365014e-03  5.7766140944727831e-03  -1.1738549860738890e-03  -1.4181326293375251e-03  6.9855501257883781e-03  -1.2055365483860115e-02  1.6262611909084984e-02  -1.9297314142928096e-02  2.0924369420345118e-02  -2.0998775166202171e-02  1.9475253831866643e-02  -1.6411671242267074e-02  1.1966028144324351e-02  -6.3872016905629500e-03  -1.2001589852446667e-10  6.8145563045478924e-03  -1.3642512865595076e-02  2.0062393696437274e-02  -2.5671178398165271e-02  3.0109246459953023e-02  -3.3082749333353430e-02  3.4382028815161336e-02  -3.3894942200827061e-02  3.1614266993900943e-02  -2.7638721338279215e-02  2.2167528414076664e-02  -1.5488849670170392e-02  7.9627885394341572e-03  4.6196840558533775e-14  -7.9627885395257021e-03  1.5488849670258806e-02  -2.2167528414158786e-02  2.7638721338352518e-02  -3.1614266993962581e-02  3.3894942200874550e-02  -3.4382028815192277e-02  3.3082749333366808e-02  -3.0109246459947565e-02  2.5671178398141082e-02  -2.0062393696395554e-02  1.3642512865537778e-02  -6.8145563044780741e-03  1.1993767702530146e-10  6.3872016906450658e-03  -1.1966028144406001e-02  1.6411671242344814e-02  -1.9475253831937950e-02  2.0998775166264964e-02  -2.0924369420398173e-02  1.9297314142971051e-02  -1.6262611909117326e-02  1.2055365483882004e-02  -6.9855501258003910e-03  1.4181326293399845e-03  1.6540665033319528e-03  -8.1537640444258840e-03  1.4132465362615948e-02  -1.9207229145223347e-02  2.3051315581197298e-02  -2.5414533108536742e-02  2.6138858122284097e-02  -2.5168362203922278e-02  2.2552832339125136e-02  -1.8444858400826009e-02  1.3090564931853003e-02  -6.8145561495247696e-03  -3.3821534081220741e-11  6.9349233161088639e-03  -1.3562757600590494e-02  1.9473107782708155e-02  -2.4297954211678321e-02  2.7734384845703060e-02  -2.9563343765023706e-02  2.9663239695218273e-02  -2.8017574438374996e-02  2.4716119136145718e-02  -1.9949563429948625e-02  1.3997964379367395e-02  -7.2137037023836462e-03  -4.3092215774337138e-14  7.2137037024691932e-03  -1.3997964379450084e-02  1.9949563430025699e-02  -2.4716119136214573e-02  2.8017574438433574e-02  -2.9663239695263889e-02  2.9563343765054290e-02  -2.7734384845717355e-02  2.4297954211675930e-02  -1.9473107782688966e-02  1.3562757600555735e-02  -6.9349233160605631e-03  3.3762826650052277e-11  6.8145561495905772e-03  -1.3090564931921712e-02  1.8444858400893677e-02  -2.2552832339188898e-02  2.5168362203980003e-02  -2.6138858122333946e-02  2.5414533108577924e-02  -2.3051315581230025e-02  1.9207229145247362e-02  -1.4132465362631887e-02  8.1537640444346044e-03  -1.6540665033337818e-03  -1.8682041825010941e-03  9.2146244005401907e-03  -1.6024419069137905e-02  2.1902365822234860e-02  -2.6509792949306898e-02  2.9585080781194015e-02  -3.0959435154440749e-02  3.0566966549003205e-02  -2.8448458916548732e-02  2.4748600509872334e-02  -1.9706851274553922e-02  1.3642512799517458e-02  -6.9349233384523824e-03  5.5988723997512201e-11  6.7354250277205600e-03  -1.2859893730928582e-02  1.8002615637536395e-02  -2.1856209871333448e-02  2.4195495278762066e-02  -2.4891173717065569e-02  2.3917566416888272e-02  -2.1353930365046309e-02  1.7379277717332699e-02  -1.2261021994843345e-02  6.3381555450891542e-03  3.8403920163448970e-14  -6.3381555451649729e-03  1.2261021994916320e-02  -1.7379277717401109e-02  2.1353930365107483e-02  -2.3917566416940338e-02  2.4891173717106613e-02  -2.4195495278790620e-02  2.1856209871348221e-02  -1.8002615637536981e-02  1.2859893730915247e-02  -6.7354250276941601e-03  -5.6026529820931605e-11  6.9349233384984506e-03  -1.3642512799568853e-02  1.9706851274607261e-02  -2.4748600509924262e-02  2.8448458916596465e-02  -3.0566966549045001e-02  3.0959435154475686e-02  -2.9585080781221670e-02  2.6509792949327822e-02  -2.1902365822249737e-02  1.6024419069147554e-02  -9.2146244005452300e-03  1.8682041825021590e-03  2.0471977584500868e-03  -1.0102007924750606e-02  1.7613338221073204e-02  -2.4180170135715575e-02  2.9457497575821081e-02  -3.3176660377515627e-02  3.5161022388476064e-02  -3.5336041772747913e-02  3.3733125703581626e-02  -3.0487043377395582e-02  2.5827066799808989e-02  -2.0062393717773425e-02  1.3562757709987435e-02  -6.7354252250183475e-03  1.3980531876377976e-10  6.2374103729507585e-03  -1.1609077409667219e-02  1.5808048628689189e-02  -1.8606687386650948e-02  1.9870216353437959e-02  -1.9564438676726519e-02  1.7757170030803873e-02  -1.4613303757710036e-02  1.0383824813195072e-02  -5.3894621042649138e-03  -3.1486361554291858e-14  5.3894621043269848e-03  -1.0383824813254845e-02  1.4613303757766039e-02  -1.7757170030854384e-02  1.9564438676769932e-02  -1.9870216353472508e-02  1.8606687386675654e-02  -1.5808048628703303e-02  1.1609077409670689e-02  -6.2374103729435056e-03  -1.3982237698151519e-10  6.7354252250438800e-03  -1.3562757710019080e-02  2.0062393717808720e-02  -2.5827066799845082e-02  3.0487043377430079e-02  -3.3733125703612199e-02  3.5336041772773177e-02  -3.5161022388495458e-02  3.3176660377529379e-02  -2.9457497575829859e-02  2.4180170135720519e-02  -1.7613338221075803e-02  1.0102007924751653e-02  -2.0471977584503656e-03  -2.1786285422619486e-03  1.0754384907348270e-02  -1.8789427135467850e-02  2.5884093543239794e-02  -3.1693297191913244e-02  3.5946362975537063e-02  -3.8462354479037827e-02  3.9159967241089701e-02  -3.8061398325951214e-02  3.5289971430749009e-02  -3.1061679405412670e-02  2.5671178500096169e-02  -1.9473107970889549e-02  1.2859894003931433e-02  -6.2374107241003436e-03  2.0881528127075190e-10  5.4936099821847311e-03  -9.9420114332071235e-03  1.3119110654543711e-02  -1.4887316247866128e-02  1.5205116525435675e-02  -1.4128594659611565e-02  1.1806804132599259e-02  -8.4713074585245109e-03  4.4205424081835238e-03  2.2458121465964300e-14  -4.4205424082278469e-03  8.4713074585674071e-03  -1.1806804132639657e-02  1.4128594659648634e-02  -1.5205116525468009e-02  1.4887316247892602e-02  -1.3119110654563459e-02  9.9420114332199622e-03  -5.4936099821907359e-03  -2.0881599075378478e-10  6.2374107241072747e-03  -1.2859894003943433e-02  1.9473107970905294e-02  -2.5671178500113957e-02  3.1061679405430646e-02  -3.5289971430765080e-02  3.8061398325963697e-02  -3.9159967241097542e-02  3.8462354479040894e-02  -3.5946362975535939e-02  3.1693297191909366e-02  -2.5884093543234440