<?xml version="1.0"?>
<VTKFile type="UnstructuredGrid"  version="0.1"  >
<UnstructuredGrid>
<Piece  NumberOfPoints="2601" NumberOfCells="5000">
<Points>
<DataArray  type="Float64"  NumberOfComponents="3"  format="ascii">-10 -10 0  -9.6 -10 0  -9.199999999999999 -10 0  -8.800000000000001 -10 0  -8.4 -10 0  -8 -10 0  -7.6 -10 0  -7.2 -10 0  -6.8 -10 0  -6.4 -10 0  -6 -10 0  -5.6 -10 0  -5.2 -10 0  -4.8 -10 0  -4.4 -10 0  -4 -10 0  -3.6 -10 0  -3.2 -10 0  -2.8 -10 0  -2.4 -10 0  -2 -10 0  -1.6 -10 0  -1.199999999999999 -10 0  -0.8000000000000007 -10 0  -0.4000000000000004 -10 0  0 -10 0  0.4000000000000004 -10 0  0.8000000000000007 -10 0  1.199999999999999 -10 0  1.6 -10 0  2 -10 0  2.4 -10 0  2.800000000000001 -10 0  3.199999999999999 -10 0  3.6 -10 0  4 -10 0  4.4 -10 0  4.800000000000001 -10 0  5.199999999999999 -10 0  5.6 -10 0  6 -10 0  6.399999999999999 -10 0  6.800000000000001 -10 0  7.199999999999999 -10 0  7.600000000000001 -10 0  8 -10 0  8.399999999999999 -10 0  8.800000000000001 -10 0  9.199999999999999 -10 0  9.600000000000001 -10 0  10 -10 0  -10 -9.6 0  -9.6 -9.6 0  -9.199999999999999 -9.6 0  -8.800000000000001 -9.6 0  -8.4 -9.6 0  -8 -9.6 0  -7.6 -9.6 0  -7.2 -9.6 0  -6.8 -9.6 0  -6.4 -9.6 0  -6 -9.6 0  -5.6 -9.6 0  -5.2 -9.6 0  -4.8 -9.6 0  -4.4 -9.6 0  -4 -9.6 0  -3.6 -9.6 0  -3.2 -9.6 0  -2.8 -9.6 0  -2.4 -9.6 0  -2 -9.6 0  -1.6 -9.6 0  -1.199999999999999 -9.6 0  -0.8000000000000007 -9.6 0  -0.4000000000000004 -9.6 0  0 -9.6 0  0.4000000000000004 -9.6 0  0.8000000000000007 -9.6 0  1.199999999999999 -9.6 0  1.6 -9.6 0  2 -9.6 0  2.4 -9.6 0  2.800000000000001 -9.6 0  3.199999999999999 -9.6 0  3.6 -9.6 0  4 -9.6 0  4.4 -9.6 0  4.800000000000001 -9.6 0  5.199999999999999 -9.6 0  5.6 -9.6 0  6 -9.6 0  6.399999999999999 -9.6 0  6.800000000000001 -9.6 0  7.199999999999999 -9.6 0  7.600000000000001 -9.6 0  8 -9.6 0  8.399999999999999 -9.6 0  8.800000000000001 -9.6 0  9.199999999999999 -9.6 0  9.600000000000001 -9.6 0  10 -9.6 0  -10 -9.199999999999999 0  -9.6 -9.199999999999999 0  -9.199999999999999 -9.199999999999999 0  -8.800000000000001 -9.199999999999999 0  -8.4 -9.199999999999999 0  -8 -9.199999999999999 0  -7.6 -9.199999999999999 0  -7.2 -9.199999999999999 0  -6.8 -9.199999999999999 0  -6.4 -9.199999999999999 0  -6 -9.199999999999999 0  -5.6 -9.199999999999999 0  -5.2 -9.199999999999999 0  -4.8 -9.199999999999999 0  -4.4 -9.199999999999999 0  -4 -9.199999999999999 0  -3.6 -9.199999999999999 0  -3.2 -9.199999999999999 0  -2.8 -9.199999999999999 0  -2.4 -9.199999999999999 0  -2 -9.199999999999999 0  -1.6 -9.199999999999999 0  -1.199999999999999 -9.199999999999999 0  -0.8000000000000007 -9.199999999999999 0  -0.4000000000000004 -9.199999999999999 0  0 -9.199999999999999 0  0.4000000000000004 -9.199999999999999 0  0.8000000000000007 -9.199999999999999 0  1.199999999999999 -9.199999999999999 0  1.6 -9.199999999999999 0  2 -9.199999999999999 0  2.4 -9.199999999999999 0  2.800000000000001 -9.199999999999999 0  3.199999999999999 -9.199999999999999 0  3.6 -9.199999999999999 0  4 -9.199999999999999 0  4.4 -9.199999999999999 0  4.800000000000001 -9.199999999999999 0  5.199999999999999 -9.199999999999999 0  5.6 -9.199999999999999 0  6 -9.199999999999999 0  6.399999999999999 -9.199999999999999 0  6.800000000000001 -9.199999999999999 0  7.199999999999999 -9.199999999999999 0  7.600000000000001 -9.199999999999999 0  8 -9.199999999999999 0  8.399999999999999 -9.199999999999999 0  8.800000000000001 -9.199999999999999 0  9.199999999999999 -9.199999999999999 0  9.600000000000001 -9.199999999999999 0  10 -9.199999999999999 0  -10 -8.800000000000001 0  -9.6 -8.800000000000001 0  -9.199999999999999 -8.800000000000001 0  -8.800000000000001 -8.800000000000001 0  -8.4 -8.800000000000001 0  -8 -8.800000000000001 0  -7.6 -8.800000000000001 0  -7.2 -8.800000000000001 0  -6.8 -8.800000000000001 0  -6.4 -8.800000000000001 0  -6 -8.800000000000001 0  -5.6 -8.800000000000001 0  -5.2 -8.800000000000001 0  -4.8 -8.800000000000001 0  -4.4 -8.800000000000001 0  -4 -8.800000000000001 0  -3.6 -8.800000000000001 0  -3.2 -8.800000000000001 0  -2.8 -8.800000000000001 0  -2.4 -8.800000000000001 0  -2 -8.800000000000001 0  -1.6 -8.800000000000001 0  -1.199999999999999 -8.800000000000001 0  -0.8000000000000007 -8.800000000000001 0  -0.4000000000000004 -8.800000000000001 0  0 -8.800000000000001 0  0.4000000000000004 -8.800000000000001 0  0.8000000000000007 -8.800000000000001 0  1.199999999999999 -8.800000000000001 0  1.6 -8.800000000000001 0  2 -8.800000000000001 0  2.4 -8.800000000000001 0  2.800000000000001 -8.800000000000001 0  3.199999999999999 -8.800000000000001 0  3.6 -8.800000000000001 0  4 -8.800000000000001 0  4.4 -8.800000000000001 0  4.800000000000001 -8.800000000000001 0  5.199999999999999 -8.800000000000001 0  5.6 -8.800000000000001 0  6 -8.800000000000001 0  6.399999999999999 -8.800000000000001 0  6.800000000000001 -8.800000000000001 0  7.199999999999999 -8.800000000000001 0  7.600000000000001 -8.800000000000001 0  8 -8.800000000000001 0  8.399999999999999 -8.800000000000001 0  8.800000000000001 -8.800000000000001 0  9.199999999999999 -8.800000000000001 0  9.600000000000001 -8.800000000000001 0  10 -8.800000000000001 0  -10 -8.4 0  -9.6 -8.4 0  -9.199999999999999 -8.4 0  -8.800000000000001 -8.4 0  -8.4 -8.4 0  -8 -8.4 0  -7.6 -8.4 0  -7.2 -8.4 0  -6.8 -8.4 0  -6.4 -8.4 0  -6 -8.4 0  -5.6 -8.4 0  -5.2 -8.4 0  -4.8 -8.4 0  -4.4 -8.4 0  -4 -8.4 0  -3.6 -8.4 0  -3.2 -8.4 0  -2.8 -8.4 0  -2.4 -8.4 0  -2 -8.4 0  -1.6 -8.4 0  -1.199999999999999 -8.4 0  -0.8000000000000007 -8.4 0  -0.4000000000000004 -8.4 0  0 -8.4 0  0.4000000000000004 -8.4 0  0.8000000000000007 -8.4 0  1.199999999999999 -8.4 0  1.6 -8.4 0  2 -8.4 0  2.4 -8.4 0  2.800000000000001 -8.4 0  3.199999999999999 -8.4 0  3.6 -8.4 0  4 -8.4 0  4.4 -8.4 0  4.800000000000001 -8.4 0  5.199999999999999 -8.4 0  5.6 -8.4 0  6 -8.4 0  6.399999999999999 -8.4 0  6.800000000000001 -8.4 0  7.199999999999999 -8.4 0  7.600000000000001 -8.4 0  8 -8.4 0  8.399999999999999 -8.4 0  8.800000000000001 -8.4 0  9.199999999999999 -8.4 0  9.600000000000001 -8.4 0  10 -8.4 0  -10 -8 0  -9.6 -8 0  -9.199999999999999 -8 0  -8.800000000000001 -8 0  -8.4 -8 0  -8 -8 0  -7.6 -8 0  -7.2 -8 0  -6.8 -8 0  -6.4 -8 0  -6 -8 0  -5.6 -8 0  -5.2 -8 0  -4.8 -8 0  -4.4 -8 0  -4 -8 0  -3.6 -8 0  -3.2 -8 0  -2.8 -8 0  -2.4 -8 0  -2 -8 0  -1.6 -8 0  -1.199999999999999 -8 0  -0.8000000000000007 -8 0  -0.4000000000000004 -8 0  0 -8 0  0.4000000000000004 -8 0  0.8000000000000007 -8 0  1.199999999999999 -8 0  1.6 -8 0  2 -8 0  2.4 -8 0  2.800000000000001 -8 0  3.199999999999999 -8 0  3.6 -8 0  4 -8 0  4.4 -8 0  4.800000000000001 -8 0  5.199999999999999 -8 0  5.6 -8 0  6 -8 0  6.399999999999999 -8 0  6.800000000000001 -8 0  7.199999999999999 -8 0  7.600000000000001 -8 0  8 -8 0  8.399999999999999 -8 0  8.800000000000001 -8 0  9.199999999999999 -8 0  9.600000000000001 -8 0  10 -8 0  -10 -7.6 0  -9.6 -7.6 0  -9.199999999999999 -7.6 0  -8.800000000000001 -7.6 0  -8.4 -7.6 0  -8 -7.6 0  -7.6 -7.6 0  -7.2 -7.6 0  -6.8 -7.6 0  -6.4 -7.6 0  -6 -7.6 0  -5.6 -7.6 0  -5.2 -7.6 0  -4.8 -7.6 0  -4.4 -7.6 0  -4 -7.6 0  -3.6 -7.6 0  -3.2 -7.6 0  -2.8 -7.6 0  -2.4 -7.6 0  -2 -7.6 0  -1.6 -7.6 0  -1.199999999999999 -7.6 0  -0.8000000000000007 -7.6 0  -0.4000000000000004 -7.6 0  0 -7.6 0  0.4000000000000004 -7.6 0  0.8000000000000007 -7.6 0  1.199999999999999 -7.6 0  1.6 -7.6 0  2 -7.6 0  2.4 -7.6 0  2.800000000000001 -7.6 0  3.199999999999999 -7.6 0  3.6 -7.6 0  4 -7.6 0  4.4 -7.6 0  4.800000000000001 -7.6 0  5.199999999999999 -7.6 0  5.6 -7.6 0  6 -7.6 0  6.399999999999999 -7.6 0  6.800000000000001 -7.6 0  7.199999999999999 -7.6 0  7.600000000000001 -7.6 0  8 -7.6 0  8.399999999999999 -7.6 0  8.800000000000001 -7.6 0  9.199999999999999 -7.6 0  9.600000000000001 -7.6 0  10 -7.6 0  -10 -7.2 0  -9.6 -7.2 0  -9.199999999999999 -7.2 0  -8.800000000000001 -7.2 0  -8.4 -7.2 0  -8 -7.2 0  -7.6 -7.2 0  -7.2 -7.2 0  -6.8 -7.2 0  -6.4 -7.2 0  -6 -7.2 0  -5.6 -7.2 0  -5.2 -7.2 0  -4.8 -7.2 0  -4.4 -7.2 0  -4 -7.2 0  -3.6 -7.2 0  -3.2 -7.2 0  -2.8 -7.2 0  -2.4 -7.2 0  -2 -7.2 0  -1.6 -7.2 0  -1.199999999999999 -7.2 0  -0.8000000000000007 -7.2 0  -0.4000000000000004 -7.2 0  0 -7.2 0  0.4000000000000004 -7.2 0  0.8000000000000007 -7.2 0  1.199999999999999 -7.2 0  1.6 -7.2 0  2 -7.2 0  2.4 -7.2 0  2.800000000000001 -7.2 0  3.199999999999999 -7.2 0  3.6 -7.2 0  4 -7.2 0  4.4 -7.2 0  4.800000000000001 -7.2 0  5.199999999999999 -7.2 0  5.6 -7.2 0  6 -7.2 0  6.399999999999999 -7.2 0  6.800000000000001 -7.2 0  7.199999999999999 -7.2 0  7.600000000000001 -7.2 0  8 -7.2 0  8.399999999999999 -7.2 0  8.800000000000001 -7.2 0  9.199999999999999 -7.2 0  9.600000000000001 -7.2 0  10 -7.2 0  -10 -6.8 0  -9.6 -6.8 0  -9.199999999999999 -6.8 0  -8.800000000000001 -6.8 0  -8.4 -6.8 0  -8 -6.8 0  -7.6 -6.8 0  -7.2 -6.8 0  -6.8 -6.8 0  -6.4 -6.8 0  -6 -6.8 0  -5.6 -6.8 0  -5.2 -6.8 0  -4.8 -6.8 0  -4.4 -6.8 0  -4 -6.8 0  -3.6 -6.8 0  -3.2 -6.8 0  -2.8 -6.8 0  -2.4 -6.8 0  -2 -6.8 0  -1.6 -6.8 0  -1.199999999999999 -6.8 0  -0.8000000000000007 -6.8 0  -0.4000000000000004 -6.8 0  0 -6.8 0  0.4000000000000004 -6.8 0  0.8000000000000007 -6.8 0  1.199999999999999 -6.8 0  1.6 -6.8 0  2 -6.8 0  2.4 -6.8 0  2.800000000000001 -6.8 0  3.199999999999999 -6.8 0  3.6 -6.8 0  4 -6.8 0  4.4 -6.8 0  4.800000000000001 -6.8 0  5.199999999999999 -6.8 0  5.6 -6.8 0  6 -6.8 0  6.399999999999999 -6.8 0  6.800000000000001 -6.8 0  7.199999999999999 -6.8 0  7.600000000000001 -6.8 0  8 -6.8 0  8.399999999999999 -6.8 0  8.800000000000001 -6.8 0  9.199999999999999 -6.8 0  9.600000000000001 -6.8 0  10 -6.8 0  -10 -6.4 0  -9.6 -6.4 0  -9.199999999999999 -6.4 0  -8.800000000000001 -6.4 0  -8.4 -6.4 0  -8 -6.4 0  -7.6 -6.4 0  -7.2 -6.4 0  -6.8 -6.4 0  -6.4 -6.4 0  -6 -6.4 0  -5.6 -6.4 0  -5.2 -6.4 0  -4.8 -6.4 0  -4.4 -6.4 0  -4 -6.4 0  -3.6 -6.4 0  -3.2 -6.4 0  -2.8 -6.4 0  -2.4 -6.4 0  -2 -6.4 0  -1.6 -6.4 0  -1.199999999999999 -6.4 0  -0.8000000000000007 -6.4 0  -0.4000000000000004 -6.4 0  0 -6.4 0
[...]
<PointData  Scalars="f_38"> 
<DataArray  type="Float64"  Name="f_38"  format="ascii">3.1875320634236629e-06  -2.2173130888700983e-05  3.9100335126712766e-05  -5.4172750296000909e-05  6.6733901455910108e-05  -7.6097700539603703e-05  8.1626918622791178e-05  -8.2754609496510419e-05  7.8992541958931338e-05  -6.9942254662180939e-05  5.5303944488725601e-05  -3.4879176585228118e-05  8.5816147471922481e-06  2.3567017925269359e-05  -6.1430343848891349e-05  1.0476176229755984e-04  -1.5320432433949538e-04  2.0629578970038714e-04  -2.6347467987218495e-04  3.2408933007978204e-04  -3.8740494843900213e-04  4.5261627433323845e-04  -5.1885637157245883e-04  5.8521356725575746e-04  -6.5074056081372111e-04  7.1447328370402130e-04  -7.7544118913822188e-04  8.3268633574341215e-04  -8.8527616032486140e-04  9.3231723378304056e-04  -9.7297169218242910e-04  1.0064681035897925e-03  -1.0321153291560701e-03  1.0493153949381205e-03  -1.0575693489482567e-03  1.0564906981355099e-03  -1.0458082631612756e-03  1.0253747932058301e-03  -9.9516867908766311e-04  9.5529414859962661e-04  -9.0598521439046262e-04  8.4759941033215247e-04  -7.8061675923681007e-04  7.0563134878783636e-04  -6.2334671827471801e-04  5.3456340734486937e-04  -4.4016970227035913e-04  3.4112610319820386e-04  -2.3841247843456101e-04  1.3260303174146437e-04  -1.8997333308963537e-05  -2.2328034297492577e-05  1.1146643515209870e-04  -1.9567365013967367e-04  2.7107117195960731e-04  -3.3397927896250932e-04  3.8093432671761659e-04  -4.0875822886006280e-04  4.1461747124733346e-04  -3.9607852807858500e-04  3.5115379639924483e-04  -2.7834199065253861e-04  1.7666096022148030e-04  -4.5668050829504258e-05  -1.1452063400698027e-04  3.0323150406020449e-04  -5.1922937834296954e-04  7.6073586375692147e-04  -1.0254464145128801e-03  1.3105628899647982e-03  -1.6128314934710656e-03  1.9285904066382951e-03  -2.2538175111523006e-03  2.5841954798164158e-03  -2.9151700134144782e-03  3.2420220847760861e-03  -3.5599367103556307e-03  3.8640782678315013e-03  -4.1496654334606366e-03  4.4120439821864147e-03  -4.6467604125364978e-03  4.8496306845121108e-03  -5.0168095496995928e-03  5.1448512795624225e-03  -5.2307664419674752e-03  5.2720722372230156e-03  -5.2668340859442280e-03  5.2137036997326556e-03  -5.1119417740830226e-03  4.9614403452194885e-03  -4.7627230607899199e-03  4.5169521554357678e-03  -4.2259132640687655e-03  3.8919966589466750e-03  -3.5181684827914517e-03  3.1079338886684086e-03  -2.6652886203678817e-03  2.1946661283427731e-03  -1.7008720854012303e-03  1.1890033865924222e-03  -6.6434955788832501e-04  1.3262869475984645e-04  4.0954892128704815e-05  -2.0353558141929503e-04  3.5727506817191668e-04  -4.9521919630158510e-04  6.1072000839884491e-04  -6.9753805991960318e-04  7.4995231172700068e-04  -7.6286399844527092e-04  7.3189417276582484e-04  -6.5346395117573785e-04  5.2487004972159293e-04  -3.4433840912244542e-04  1.1106948411719280e-04  1.7473997591463107e-04  -5.1188394476675363e-04  8.9815362061876163e-04  -1.3303590327347625e-03  1.8043701720320520e-03  -2.3151665430167275e-03  2.8569110642679752e-03  -3.4230296350320436e-03  4.0063062361529516e-03  -4.5989881398011056e-03  5.1929027018313327e-03  -5.7795750553814151e-03  6.3503622022531145e-03  -6.8965807282490238e-03  7.4096438672478357e-03  -7.8811940514313863e-03  8.3032317637908148e-03  -8.6682427056379574e-03  8.9693186452974548e-03  -9.2002688558638392e-03  9.3557218755148108e-03  -9.4312135870192847e-03  9.4232666059690003e-03  -9.3294523926775730e-03  9.1484400097357633e-03  -8.8800254987467606e-03  8.5251453298070632e-03  -8.0858772294416653e-03  7.5654203719004408e-03  -6.9680584986171919e-03  6.2991098150599681e-03  -5.5648588750071793e-03  4.7724741341378264e-03  -3.9299131663099243e-03  3.0458173808162949e-03  -2.1293945442082750e-03  1.1903218515122581e-03  -2.3872351048422752e-04  -6.0475052663072125e-05  3.0051111209701244e-04  -5.2776629899681227e-04  7.3223815447645210e-04  -9.0433882801000266e-04  1.0350626075153033e-03  -1.1161516089658605e-03  1.1402466392345296e-03  -1.1010215204927348e-03  9.9330686758163111e-04  -8.1319003052372839e-04  5.5809944632556662e-04  -2.2686459829722000e-04  -1.8024748975176022e-04  6.6151818765881854e-04  -1.2137820527016244e-03  1.8324641606874269e-03  -2.5116312829728308e-03  3.2440722562258758e-03  -4.0213945493183965e-03  4.8341474213444424e-03  -5.6719513641253399e-03  6.5236567591211618e-03  -7.3775030517459275e-03  8.2213003464583836e-03  -9.0426086326104455e-03  9.8289333155624995e-03  -1.0567914846016128e-02  1.1247521168332723e-02  -1.1856236177176092e-02  1.2383240702387697e-02  -1.2818585897487855e-02  1.3153352461739924e-02  -1.3379800630113363e-02  1.3491495481102726e-02  -1.3483420941958518e-02  1.3352069130033652e-02  -1.3095509425560856e-02  1.2713432580164198e-02  -1.2207171162291966e-02  1.1579698075458894e-02  -1.0835599189189686e-02  9.9810205953255321e-03  -9.0235968379085169e-03  7.9723533442018629e-03  -6.8375869105237229e-03  5.6307341674911634e-03  -4.3642168457808002e-03  3.0512774584096321e-03  -1.7058111820997363e-03  3.4218344670229790e-04  8.1384015475470574e-05  -4.0445801375356291e-04  7.1083771694885800e-04  -9.8747466623694074e-04  1.2218527907778562e-03  -1.4022135307538242e-03  1.5177711630774858e-03  -1.5589080607068832e-03  1.5173559960879475e-03  -1.3863503245144600e-03  1.1607643937435353e-03  -8.3721712778550724e-04  4.1415229678904119e-04  1.0811431328246350e-04  -7.2737250535556718e-04  1.4395331716323698e-03  -2.2386650421024955e-03  3.1170723467928898e-03  -4.0653908866137038e-03  5.0727199642080917e-03  -6.1267747089151902e-03  7.2140639035660195e-03  -8.3200885344182074e-03  9.4295543989882675e-03  -1.0526603814362866e-02  1.1595053390257116e-02  -1.2618645125833803e-02  1.3581292600341971e-02  -1.4467336525904564e-02  1.5261782274097514e-02  -1.5950543169444723e-02  1.6520659740240043e-02  -1.6960512980746471e-02  1.7260012773774897e-02  -1.7410767133845637e-02  1.7406228586391775e-02  -1.7241809554592404e-02  1.6914971340535077e-02  -1.6425284463053722e-02  1.5774455249514208e-02  -1.4966320326475603e-02  1.4006814518471366e-02  -1.2903903355757045e-02  1.1667485777610613e-02  -1.0309270483055841e-02  8.8426209921903462e-03  -7.2823826747317683e-03  5.6446816805562870e-03  -3.9467098869870789e-03  2.2064903216926063e-03  -4.4262758020101502e-04  -1.0407032260925299e-04  5.1727986717905788e-04  -9.0991070784287166e-04  1.2658817369099709e-03  -1.5697646563187357e-03  1.8070626179673573e-03  -1.9644725191477449e-03  2.0301264174480129e-03  -1.9938149184478633e-03  1.8471764499673360e-03  -1.5838623788668306e-03  1.1996686023954622e-03  -6.9263429164550931e-04  6.3100064834190631e-05  6.8626704844695701e-04  -1.5504879542255264e-03  2.5223209135437821e-03  -3.5923524548006052e-03  4.7491198396073710e-03  -5.9792684254198871e-03  7.2677428016882191e-03  -8.5980008122385591e-03  9.9522597317571009e-03  -1.1311758013388611e-02  1.2657036213547329e-02  -1.3968234510098963e-02  1.5225393024831493e-02  -1.6408762643960541e-02  1.7499110594882607e-02  -1.8478019641027209e-02  1.9328181553541025e-02  -2.0033668764111570e-02  2.0580194836672033e-02  -2.0955347476733319e-02  2.1148795656510948e-02  -2.1152469012582723e-02  2.0960699125537611e-02  -2.0570330788215938e-02  1.9980793977438925e-02  -1.9194139123671357e-02  1.8215027610924861e-02  -1.7050695556559727e-02  1.5710870088293485e-02  -1.4207649272523909e-02  1.2555350739903751e-02  -1.0770323086829497e-02  8.8707313772815322e-03  -6.8763121707668433e-03  4.8081049164740916e-03  -2.6881640731225972e-03  5.3925623749831290e-04  1.2887541008978792e-04  -6.4068056887081279e-04  1.1280548480517407e-03  -1.5719071180851096e-03  1.9539182821068299e-03  -2.2568702610310685e-03  2.4649568635822417e-03  -2.5640700074636789e-03  2.5420617225520746e-03  -2.3889731452831396e-03  2.0972241686001217e-03  -1.6617719950265967e-03  1.0802274256903771e-03  -3.5292584837190812e-04  -5.1704552320068833e-04  1.5238625136563720e-03  -2.6590240351668641e-03  3.9114601910540002e-03  -5.2676707234671485e-03  6.7119182802539042e-03  -8.2264477699779039e-03  9.7917454719199729e-03  -1.1386824333320332e-02  1.2989535034826879e-02  -1.4576899515510576e-02  1.6125460105995786e-02  -1.7611635564156063e-02  1.9012087689391447e-02  -2.0304081879864790e-02  2.1465843185030364e-02  -2.2476899460605004e-02  2.3318406440731292e-02  -2.3973453293558745e-02  2.4427336560152960e-02  -2.4667810399481089e-02  2.4685292710267457e-02  -2.4473034202865757e-02  2.4027251242113492e-02  -2.3347211756602197e-02  2.2435271991076609e-02  -2.1296873788008354e-02  1.9940495052500395e-02  -1.8377554226193409e-02  1.6622268318567598e-02  -1.4691474728410389e-02  1.2604407174199630e-02  -1.0382444303786537e-02  8.0488174239590256e-03  -5.6282954296319136e-03  3.1468451687703979e-03  -6.3127387429805942e-04  -1.5609448319382728e-04  7.7612748722545653e-04  -1.3679170732886676e-03  1.9093899181378759e-03  -2.3793622200776986e-03  2.7579187801190417e-03  -3.0267676372395186e-03  3.1695727349128791e-03  -3.1722543068736469e-03  3.0232537529891286e-03  -2.7137504273485177e-03  2.2378458221528523e-03  -1.5926965275908705e-03  7.7859821808646461e-04  2.0098549375909902e-04  -1.3394382414833085e-03  2.6270597296802092e-03  -4.0511885152985042e-03  5.5963655779404549e-03  -7.2445498716514059e-03  8.9753756600947105e-03  -1.0766445406231017e-02  1.2593661740196290e-02  -1.4431583769156219e-02  1.6253809326067448e-02  -1.8033378953861038e-02  1.9743182821967090e-02  -2.1356382979640733e-02  2.2846825774031278e-02  -2.4189456518792354e-02  2.5360707899900855e-02  -2.6338880649227368e-02  2.7104486828007673e-02  -2.7640575828434787e-02  2.7933009991000148e-02  -2.7970710675034597e-02  2.7745850585944760e-02  -2.7254004384127003e-02  2.6494248534990598e-02  -2.5469208745470338e-02  2.4185049500803479e-02  -2.2651423863196882e-02  2.0881359218783667e-02  -1.8891100585961208e-02  1.6699897647592575e-02  -1.4329754933255079e-02  1.1805138103298016e-02  -9.1526417133007965e-03  6.4006235987264940e-03  -3.5788217904763418e-03  7.1793617756176094e-04  1.8596525509884961e-04  -9.2481569627798584e-04  1.6316560465823556e-03  -2.2814669889702575e-03  2.8502325272509836e-03  -3.3153667128168560e-03  3.6561161234427699e-03  -3.8539327502457223e-03  3.8928137171580840e-03  -3.7595997156160280e-03  3.4442224167701122e-03  -2.9399080253322031e-03  2.2433302769292937e-03  -1.3547058403995680e-03  2.7782750052375273e-04  9.7995486523067411e-04  -2.4078105556389262e-03  3.9915635687305185e-03  -5.7138806094448385e-03  7.5545106506952064e-03  -9.4905735091767203e-03  1.1496893433972716e-02  -1.3546369866142782e-02  1.5610378619064976e-02  -1.7659205064038098e-02  1.9662494650820057e-02  -2.1589716238398768e-02  2.3410633914061941e-02  -2.5095773425127903e-02  2.6616886902393579e-02  -2.7947394817210168e-02  2.9062810280151508e-02  -2.9941130685113740e-02  3.0563199513213863e-02  -3.0913022616212687e-02  3.0978040430185996e-02  -3.0749349474758315e-02  3.0221871213141595e-02  -2.9394460977962538e-02  2.8269966843859670e-02  -2.6855216445818182e-02  2.5160959477649888e-02  -2.3201742515828332e-02  2.0995729394730281e-02  -1.8564465960462427e-02  1.5932595539935254e-02  -1.3127529584442762e-02  1.0179073133853985e-02  -7.1190184277855279e-03  3.9807061902172557e-03  -7.9856389371485794e-04  -2.1866722923438606e-04  1.0876373123900847e-03  -1.9208866639700108e-03  2.6904915888358583e-03  -3.3696422366968730e-03  3.9331171371345102e-03  -4.3577281332734382e-03  4.6227351874706495e-03  -4.7102254316614680e-03  4.6054406037354242e-03  -4.2970559029058188e-03  3.7774052214772989e-03  -3.0426491647913409e-03  2.0928832735609927e-03  -9.3217501380084863e-04  -4.3145604427365038e-04  1.9861235271169358e-03  -3.7162225589209064e-03  5.6026399122634137e-03  -7.6230165822897926e-03  9.7520702755983252e-03  -1.1961961751816923e-02  1.4222706472752922e-02  -1.6502621808553660e-02  1.8768801258167118e-02  -2.0987620644754929e-02  2.3125245008627324e-02  -2.5148156264536314e-02  2.7023668596217472e-02  -2.8720441732379223e-02  3.0208974731406945e-02  -3.1462074615288896e-02  3.2455288548933571e-02  -3.3167308141593896e-02  3.3580318365910744e-02  -3.3680301832479650e-02  3.3457281345730880e-02  -3.2905510094619762e-02  3.2023592507593270e-02  -3.0814548726562349e-02  2.9285802540462910e-02  -2.7449116679738497e-02  2.5320454135302452e-02  -2.2919782057436864e-02  2.0270807993772406e-02  -1.7400670425753720e-02  1.4339567886752126e-02  -1.1120350202721173e-02  7.7780658467190610e-03  -4.3494782710972232e-03  8.7255197300101586e-04  2.5431291476168613e-04  -1.2651564282305876e-03  2.2366343008544849e-03  -3.1379670600344086e-03  3.9395969598431980e-03  -4.6137082481668458e-03  5.1347115559262531e-03  -5.4797012642937458e-03  5.6288689020048306e-03  -5.5658630987767653e-03  5.2780965440975703e-03  -4.7569909733912452e-03  3.9981659790611652e-03  -3.0015493999154632e-03  1.7714268979744376e-03  -3.1641890167179366e-04  -1.3506141913190916e-03  3.2127328507635150e-03  -5.2491456408280878e-03  7.4355000830095309e-03  -9.7442310068367247e-03  1.2144964000064096e-02  -1.4604962357892728e-02  1.7089618744920536e-02  -1.9562975572769113e-02  2.1988268950179465e-02  -2.4328497298398415e-02  2.6546985936294641e-02  -2.8607958661360029e-02  3.0477096216206971e-02  -3.2122077016622758e-02  3.3513089474082186e-02  -3.4623309079883195e-02  3.5429331674092859e-02  -3.5911565927869989e-02  3.6054558984778433e-02  -3.5847268035464751e-02  3.5283263508001254e-02  -3.4360866942463368e-02  3.3083216131443854e-02  -3.1458260964346563e-02  2.9498683235904655e-02  -2.7221755023010809e-02  2.4649117835392496e-02  -2.1806498649603715e-02  1.8723370872365221e-02  -1.5432549848684116e-02  1.1969746537325174e-02  -8.3730737304353806e-03  4.6825168885895590e-03  -9.3937433157872138e-04  -2.9294577682369892e-04  1.4575883927066557e-03  -2.5792947959914219e-03  3.6244900555133636e-03  -4.5609218413402847e-03  5.3582273556777096e-03  -5.9884569900766470e-03  6.4265704848308781e-03  -6.6508849734482700e-03  6.6434643213925584e-03  -6.3904545909006048e-03  5.8823498618492251e-03  -5.1141933512281520e-03  4.0857038521708144e-03  -2.8013251207063654e-03  1.2702034192976295e-03  4.9391341631981902e-04  -2.4728499893963292e-03  4.6442492667377929e-03  -6.9818854992327352e-03  9.4560431099511098e-03  -1.2033948773986763e-02  1.4680258824884372e-02  -1.7357589870499124e-02  2.0027076752796569e-02  -2.2648969514275554e-02  2.5183240743847764e-02  -2.7590201435899707e-02  2.9831117137912311e-02  -3.1868813386012849e-02  3.3668258438814859e-02  -3.5197122111864758e-02  3.6426288170558235e-02  -3.7330327606483672e-02  3.7887917836522136e-02  -3.8082200863323881e-02  3.7901075617439238e-02  -3.7337418552457813e-02  3.6389232644328973e-02  -3.5059721274495831e-02  3.3357280773079173e-02  -3.1295417909140505e-02  2.8892593827691500e-02  -2.6171990036595968e-02  2.3161199049461505e-02  -1.9891857622716915e-02  1.6399215509267883e-02  -1.2721647022646523e-02  8.9001224847189003e-03  -4.9776340322705897e-03  9.9859146395600432e-04  3.3453487581945005e-04  -1.6647821120383823e-03  2.9486107960005710e-03  -4.1497156334897112e-03  5.2332151517556283e-03  -6.1662524628014600e-03  6.9185662826986068e-03  -7.4630201993496695e-03  7.7760814629895085e-03  -7.8382438915481998e-03  7.6343865634771295e-03  -7.1540596520810315e-03  6.3917016001133666e-03  -5.3467743671442563e-03  4.0238194226733396e-03  -2.4324316498523504e-03  5.8715465086696091e-04  1.4927062464743833e-03  -3.7833460066485310e-03  6.2567960525761537e-03  -8.8813290955199655e-03  1.1621922836674847e-02  -1.4440780648272328e-02  1.7297898188924681e-02  -2.0151667501190497e-02  2.2959507943836267e-02  -2.5678525743214171e-02  2.8266168797225658e-02  -3.0680887824962238e-02  3.2882786877873105e-02  -3.4834247421287122e-02  3.6500525955144525e-02  -3.7850308433831178e-02  3.8856211485886576e-02  -3.9495239049888206e-02  3.9749158438223985e-02  -3.9604823269480408e-02  3.9054404561513829e-02  -3.8095555620410622e-02  3.6731483967100062e-02  -3.4970957146999063e-02  3.2828201962753024e-02  -3.0322747782699094e-02  2.7479169991579573e-02  -2.4326764620345182e-02  2.0899153715705811e-02  -1.7233824014538848e-02  1.3371605530667425e-02  -9.3561049558616785e-03  5.2330923452873195e-03  -1.0498559052509366e-03  -3.7897570370245854e-04  1.8862176006874439e-03  -3.3436571457014790e-03  4.7123372508904591e-03  -5.9548166021678953e-03  7.0358126858031068e-03  -7.9228062582720887e-03  8.5866087127918506e-03  -9.0018726790120907e-03  9.1475392588574976e-03  -9.0072235399345051e-03  8.5695204669046683e-03  -7.8282348595530241e-03  6.7825260259718060e-03  -5.4369702435660130e-03  3.8015336920963023e-03  -1.8914578168679490e-03  -2.7292975177763178e-04  2.6665016894168790e-03  -5.2596851169635873e-03  8.0188867343226194e-03  -1.0906993035983447e-02  1.3883917307419245e-02  -1.6907204353885937e-02  1.9932671704776299e-02  -2.2915084016813570e-02  2.5808844118653172e-02  -2.8568700671939569e-02  3.1150446433262570e-02  -3.3511605938394626e-02  3.5612106548438119e-02  -3.7414907779569712e-02  3.8886595940939225e-02  -3.9997917829959970e-02  4.0724259587930710e-02  -4.1046057451469095e-02  4.0949131044631368e-02  -4.0424939034192628e-02  3.9470748091174394e-02  -3.8089718986681773e-02  3.6290902896464555e-02  -3.4089146544622091e-02  3.1504915885108210e-02  -2.8564031570753042e-02  2.5297322835034365e-02  -2.1740207918156181e-02  1.7932205776128075e-02  -1.3916383733487829e-02  9.7387535605314678e-03  -5.4476239235555961e-03  1.0929128788414563e-03  4.2608839213575603e-04  -2.1209976139182204e-03  3.7628336464307780e-03  -5.3100743000103739e-03  6.7228010086111930e-03  -7.9633780542840236e-03  8.9970955156704162e-03  -9.7927653983424217e-03  1.0323263523975357e-02  -1.0566004401283349e-02  1.0503348042883222e-02  -1.0122925230896683e-02  9.4178807579736300e-03  -8.3870273745236239e-03  7.0349131445274380e-03  -5.3717936500469509e-03  3.4135147837548287e-03  -1.1813081900898606e-03  -1.2985049959625017e-03  3.9948886501643740e-03  -6.8725418445895236e-03  9.8924225512789718e-03  -1.3012328316320166e-02  1.6187529711381914e-02  -1.9371452256252017e-02  2.2516383266902900e-02  -2.5574205422326839e-02  2.8497138306624335e-02  -3.1238481960711748e-02  3.3753336309925823e-02  -3.5999315508836366e-02  3.7937208206077454e-02  -3.9531610327894227e-02  4.0751482529522445e-02  -4.1570664297853242e-02  4.1968299655952689e-02  -4.1929197143845388e-02  4.1444094746958177e-02  -4.0509845682606883e-02  3.9129501630425348e-02  -3.7312319579097898e-02  3.5073653638934763e-02  -3.2434778451388806e-02  2.9422603192832120e-02  -2.6069314697358275e-02  2.2411932273458484e-02  -1.8491794939023143e-02  1.4353978747082739e-02  -1.0046660862793539e-02  5.6204384440939328e-03  -1.1276037784158275e-03  -4.7561871020780102e-04  2.3678548926297466e-03  -4.2038729658579275e-03  5.9396849635000521e-03  -7.5329873959463787e-03  8.9438770322123867e-03  -1.0135525938689464e-02  1.1074809643598155e-02  -1.1732873789289016e-02  1.2085638400957910e-02  -1.2114222525948144e-02  1.1805288565921366e-02  -1.1151298759742693e-02  1.0150677788420073e-02  -8.8078832168339786e-03  7.1333811396264843e-03  -5.1435198285708595e-03  2.8603206324492869e-03  -3.1116239093083146e-04  -2.4716035025489987e-03  5.4511290430086651e-03  -8.5866160401521594e-03  1.1833926267919825e-02  -1.5146244744466917e-02  1.8474791769484810e-02  -2.1769570925389926e-02  2.4980130176368080e-02  -2.8056345230081763e-02  3.0949194475051685e-02  -3.3611521531032119e-02  3.5998775302658853e-02  -3.8069710313690219e-02  3.9787043603202954e-02  -4.1118050058873000e-02  4.2035091194835263e-02  -4.2516072074184681e-02  4.2544810078038536e-02  -4.2111324082701532e-02  4.1212018907810552e-02  -3.9849787806329202e-02  3.8034006041267068e-02  -3.5780430398318665e-02  3.3111005666511352e-02  -3.0053576001504882e-02  2.6641503998974702e-02  -2.2913210351546736e-02  1.8911633981952801e-02  -1.4683625350237654e-