<?xml version="1.0"?>
<VTKFile type="UnstructuredGrid"  version="0.1"  >
<UnstructuredGrid>
<Piece  NumberOfPoints="2601" NumberOfCells="5000">
<Points>
<DataArray  type="Float64"  NumberOfComponents="3"  format="ascii">-10 -10 0  -9.6 -10 0  -9.199999999999999 -10 0  -8.800000000000001 -10 0  -8.4 -10 0  -8 -10 0  -7.6 -10 0  -7.2 -10 0  -6.8 -10 0  -6.4 -10 0  -6 -10 0  -5.6 -10 0  -5.2 -10 0  -4.8 -10 0  -4.4 -10 0  -4 -10 0  -3.6 -10 0  -3.2 -10 0  -2.8 -10 0  -2.4 -10 0  -2 -10 0  -1.6 -10 0  -1.199999999999999 -10 0  -0.8000000000000007 -10 0  -0.4000000000000004 -10 0  0 -10 0  0.4000000000000004 -10 0  0.8000000000000007 -10 0  1.199999999999999 -10 0  1.6 -10 0  2 -10 0  2.4 -10 0  2.800000000000001 -10 0  3.199999999999999 -10 0  3.6 -10 0  4 -10 0  4.4 -10 0  4.800000000000001 -10 0  5.199999999999999 -10 0  5.6 -10 0  6 -10 0  6.399999999999999 -10 0  6.800000000000001 -10 0  7.199999999999999 -10 0  7.600000000000001 -10 0  8 -10 0  8.399999999999999 -10 0  8.800000000000001 -10 0  9.199999999999999 -10 0  9.600000000000001 -10 0  10 -10 0  -10 -9.6 0  -9.6 -9.6 0  -9.199999999999999 -9.6 0  -8.800000000000001 -9.6 0  -8.4 -9.6 0  -8 -9.6 0  -7.6 -9.6 0  -7.2 -9.6 0  -6.8 -9.6 0  -6.4 -9.6 0  -6 -9.6 0  -5.6 -9.6 0  -5.2 -9.6 0  -4.8 -9.6 0  -4.4 -9.6 0  -4 -9.6 0  -3.6 -9.6 0  -3.2 -9.6 0  -2.8 -9.6 0  -2.4 -9.6 0  -2 -9.6 0  -1.6 -9.6 0  -1.199999999999999 -9.6 0  -0.8000000000000007 -9.6 0  -0.4000000000000004 -9.6 0  0 -9.6 0  0.4000000000000004 -9.6 0  0.8000000000000007 -9.6 0  1.199999999999999 -9.6 0  1.6 -9.6 0  2 -9.6 0  2.4 -9.6 0  2.800000000000001 -9.6 0  3.199999999999999 -9.6 0  3.6 -9.6 0  4 -9.6 0  4.4 -9.6 0  4.800000000000001 -9.6 0  5.199999999999999 -9.6 0  5.6 -9.6 0  6 -9.6 0  6.399999999999999 -9.6 0  6.800000000000001 -9.6 0  7.199999999999999 -9.6 0  7.600000000000001 -9.6 0  8 -9.6 0  8.399999999999999 -9.6 0  8.800000000000001 -9.6 0  9.199999999999999 -9.6 0  9.600000000000001 -9.6 0  10 -9.6 0  -10 -9.199999999999999 0  -9.6 -9.199999999999999 0  -9.199999999999999 -9.199999999999999 0  -8.800000000000001 -9.199999999999999 0  -8.4 -9.199999999999999 0  -8 -9.199999999999999 0  -7.6 -9.199999999999999 0  -7.2 -9.199999999999999 0  -6.8 -9.199999999999999 0  -6.4 -9.199999999999999 0  -6 -9.199999999999999 0  -5.6 -9.199999999999999 0  -5.2 -9.199999999999999 0  -4.8 -9.199999999999999 0  -4.4 -9.199999999999999 0  -4 -9.199999999999999 0  -3.6 -9.199999999999999 0  -3.2 -9.199999999999999 0  -2.8 -9.199999999999999 0  -2.4 -9.199999999999999 0  -2 -9.199999999999999 0  -1.6 -9.199999999999999 0  -1.199999999999999 -9.199999999999999 0  -0.8000000000000007 -9.199999999999999 0  -0.4000000000000004 -9.199999999999999 0  0 -9.199999999999999 0  0.4000000000000004 -9.199999999999999 0  0.8000000000000007 -9.199999999999999 0  1.199999999999999 -9.199999999999999 0  1.6 -9.199999999999999 0  2 -9.199999999999999 0  2.4 -9.199999999999999 0  2.800000000000001 -9.199999999999999 0  3.199999999999999 -9.199999999999999 0  3.6 -9.199999999999999 0  4 -9.199999999999999 0  4.4 -9.199999999999999 0  4.800000000000001 -9.199999999999999 0  5.199999999999999 -9.199999999999999 0  5.6 -9.199999999999999 0  6 -9.199999999999999 0  6.399999999999999 -9.199999999999999 0  6.800000000000001 -9.199999999999999 0  7.199999999999999 -9.199999999999999 0  7.600000000000001 -9.199999999999999 0  8 -9.199999999999999 0  8.399999999999999 -9.199999999999999 0  8.800000000000001 -9.199999999999999 0  9.199999999999999 -9.199999999999999 0  9.600000000000001 -9.199999999999999 0  10 -9.199999999999999 0  -10 -8.800000000000001 0  -9.6 -8.800000000000001 0  -9.199999999999999 -8.800000000000001 0  -8.800000000000001 -8.800000000000001 0  -8.4 -8.800000000000001 0  -8 -8.800000000000001 0  -7.6 -8.800000000000001 0  -7.2 -8.800000000000001 0  -6.8 -8.800000000000001 0  -6.4 -8.800000000000001 0  -6 -8.800000000000001 0  -5.6 -8.800000000000001 0  -5.2 -8.800000000000001 0  -4.8 -8.800000000000001 0  -4.4 -8.800000000000001 0  -4 -8.800000000000001 0  -3.6 -8.800000000000001 0  -3.2 -8.800000000000001 0  -2.8 -8.800000000000001 0  -2.4 -8.800000000000001 0  -2 -8.800000000000001 0  -1.6 -8.800000000000001 0  -1.199999999999999 -8.800000000000001 0  -0.8000000000000007 -8.800000000000001 0  -0.4000000000000004 -8.800000000000001 0  0 -8.800000000000001 0  0.4000000000000004 -8.800000000000001 0  0.8000000000000007 -8.800000000000001 0  1.199999999999999 -8.800000000000001 0  1.6 -8.800000000000001 0  2 -8.800000000000001 0  2.4 -8.800000000000001 0  2.800000000000001 -8.800000000000001 0  3.199999999999999 -8.800000000000001 0  3.6 -8.800000000000001 0  4 -8.800000000000001 0  4.4 -8.800000000000001 0  4.800000000000001 -8.800000000000001 0  5.199999999999999 -8.800000000000001 0  5.6 -8.800000000000001 0  6 -8.800000000000001 0  6.399999999999999 -8.800000000000001 0  6.800000000000001 -8.800000000000001 0  7.199999999999999 -8.800000000000001 0  7.600000000000001 -8.800000000000001 0  8 -8.800000000000001 0  8.399999999999999 -8.800000000000001 0  8.800000000000001 -8.800000000000001 0  9.199999999999999 -8.800000000000001 0  9.600000000000001 -8.800000000000001 0  10 -8.800000000000001 0  -10 -8.4 0  -9.6 -8.4 0  -9.199999999999999 -8.4 0  -8.800000000000001 -8.4 0  -8.4 -8.4 0  -8 -8.4 0  -7.6 -8.4 0  -7.2 -8.4 0  -6.8 -8.4 0  -6.4 -8.4 0  -6 -8.4 0  -5.6 -8.4 0  -5.2 -8.4 0  -4.8 -8.4 0  -4.4 -8.4 0  -4 -8.4 0  -3.6 -8.4 0  -3.2 -8.4 0  -2.8 -8.4 0  -2.4 -8.4 0  -2 -8.4 0  -1.6 -8.4 0  -1.199999999999999 -8.4 0  -0.8000000000000007 -8.4 0  -0.4000000000000004 -8.4 0  0 -8.4 0  0.4000000000000004 -8.4 0  0.8000000000000007 -8.4 0  1.199999999999999 -8.4 0  1.6 -8.4 0  2 -8.4 0  2.4 -8.4 0  2.800000000000001 -8.4 0  3.199999999999999 -8.4 0  3.6 -8.4 0  4 -8.4 0  4.4 -8.4 0  4.800000000000001 -8.4 0  5.199999999999999 -8.4 0  5.6 -8.4 0  6 -8.4 0  6.399999999999999 -8.4 0  6.800000000000001 -8.4 0  7.199999999999999 -8.4 0  7.600000000000001 -8.4 0  8 -8.4 0  8.399999999999999 -8.4 0  8.800000000000001 -8.4 0  9.199999999999999 -8.4 0  9.600000000000001 -8.4 0  10 -8.4 0  -10 -8 0  -9.6 -8 0  -9.199999999999999 -8 0  -8.800000000000001 -8 0  -8.4 -8 0  -8 -8 0  -7.6 -8 0  -7.2 -8 0  -6.8 -8 0  -6.4 -8 0  -6 -8 0  -5.6 -8 0  -5.2 -8 0  -4.8 -8 0  -4.4 -8 0  -4 -8 0  -3.6 -8 0  -3.2 -8 0  -2.8 -8 0  -2.4 -8 0  -2 -8 0  -1.6 -8 0  -1.199999999999999 -8 0  -0.8000000000000007 -8 0  -0.4000000000000004 -8 0  0 -8 0  0.4000000000000004 -8 0  0.8000000000000007 -8 0  1.199999999999999 -8 0  1.6 -8 0  2 -8 0  2.4 -8 0  2.800000000000001 -8 0  3.199999999999999 -8 0  3.6 -8 0  4 -8 0  4.4 -8 0  4.800000000000001 -8 0  5.199999999999999 -8 0  5.6 -8 0  6 -8 0  6.399999999999999 -8 0  6.800000000000001 -8 0  7.199999999999999 -8 0  7.600000000000001 -8 0  8 -8 0  8.399999999999999 -8 0  8.800000000000001 -8 0  9.199999999999999 -8 0  9.600000000000001 -8 0  10 -8 0  -10 -7.6 0  -9.6 -7.6 0  -9.199999999999999 -7.6 0  -8.800000000000001 -7.6 0  -8.4 -7.6 0  -8 -7.6 0  -7.6 -7.6 0  -7.2 -7.6 0  -6.8 -7.6 0  -6.4 -7.6 0  -6 -7.6 0  -5.6 -7.6 0  -5.2 -7.6 0  -4.8 -7.6 0  -4.4 -7.6 0  -4 -7.6 0  -3.6 -7.6 0  -3.2 -7.6 0  -2.8 -7.6 0  -2.4 -7.6 0  -2 -7.6 0  -1.6 -7.6 0  -1.199999999999999 -7.6 0  -0.8000000000000007 -7.6 0  -0.4000000000000004 -7.6 0  0 -7.6 0  0.4000000000000004 -7.6 0  0.8000000000000007 -7.6 0  1.199999999999999 -7.6 0  1.6 -7.6 0  2 -7.6 0  2.4 -7.6 0  2.800000000000001 -7.6 0  3.199999999999999 -7.6 0  3.6 -7.6 0  4 -7.6 0  4.4 -7.6 0  4.800000000000001 -7.6 0  5.199999999999999 -7.6 0  5.6 -7.6 0  6 -7.6 0  6.399999999999999 -7.6 0  6.800000000000001 -7.6 0  7.199999999999999 -7.6 0  7.600000000000001 -7.6 0  8 -7.6 0  8.399999999999999 -7.6 0  8.800000000000001 -7.6 0  9.199999999999999 -7.6 0  9.600000000000001 -7.6 0  10 -7.6 0  -10 -7.2 0  -9.6 -7.2 0  -9.199999999999999 -7.2 0  -8.800000000000001 -7.2 0  -8.4 -7.2 0  -8 -7.2 0  -7.6 -7.2 0  -7.2 -7.2 0  -6.8 -7.2 0  -6.4 -7.2 0  -6 -7.2 0  -5.6 -7.2 0  -5.2 -7.2 0  -4.8 -7.2 0  -4.4 -7.2 0  -4 -7.2 0  -3.6 -7.2 0  -3.2 -7.2 0  -2.8 -7.2 0  -2.4 -7.2 0  -2 -7.2 0  -1.6 -7.2 0  -1.199999999999999 -7.2 0  -0.8000000000000007 -7.2 0  -0.4000000000000004 -7.2 0  0 -7.2 0  0.4000000000000004 -7.2 0  0.8000000000000007 -7.2 0  1.199999999999999 -7.2 0  1.6 -7.2 0  2 -7.2 0  2.4 -7.2 0  2.800000000000001 -7.2 0  3.199999999999999 -7.2 0  3.6 -7.2 0  4 -7.2 0  4.4 -7.2 0  4.800000000000001 -7.2 0  5.199999999999999 -7.2 0  5.6 -7.2 0  6 -7.2 0  6.399999999999999 -7.2 0  6.800000000000001 -7.2 0  7.199999999999999 -7.2 0  7.600000000000001 -7.2 0  8 -7.2 0  8.399999999999999 -7.2 0  8.800000000000001 -7.2 0  9.199999999999999 -7.2 0  9.600000000000001 -7.2 0  10 -7.2 0  -10 -6.8 0  -9.6 -6.8 0  -9.199999999999999 -6.8 0  -8.800000000000001 -6.8 0  -8.4 -6.8 0  -8 -6.8 0  -7.6 -6.8 0  -7.2 -6.8 0  -6.8 -6.8 0  -6.4 -6.8 0  -6 -6.8 0  -5.6 -6.8 0  -5.2 -6.8 0  -4.8 -6.8 0  -4.4 -6.8 0  -4 -6.8 0  -3.6 -6.8 0  -3.2 -6.8 0  -2.8 -6.8 0  -2.4 -6.8 0  -2 -6.8 0  -1.6 -6.8 0  -1.199999999999999 -6.8 0  -0.8000000000000007 -6.8 0  -0.4000000000000004 -6.8 0  0 -6.8 0  0.4000000000000004 -6.8 0  0.8000000000000007 -6.8 0  1.199999999999999 -6.8 0  1.6 -6.8 0  2 -6.8 0  2.4 -6.8 0  2.800000000000001 -6.8 0  3.199999999999999 -6.8 0  3.6 -6.8 0  4 -6.8 0  4.4 -6.8 0  4.800000000000001 -6.8 0  5.199999999999999 -6.8 0  5.6 -6.8 0  6 -6.8 0  6.399999999999999 -6.8 0  6.800000000000001 -6.8 0  7.199999999999999 -6.8 0  7.600000000000001 -6.8 0  8 -6.8 0  8.399999999999999 -6.8 0  8.800000000000001 -6.8 0  9.199999999999999 -6.8 0  9.600000000000001 -6.8 0  10 -6.8 0  -10 -6.4 0  -9.6 -6.4 0  -9.199999999999999 -6.4 0  -8.800000000000001 -6.4 0  -8.4 -6.4 0  -8 -6.4 0  -7.6 -6.4 0  -7.2 -6.4 0  -6.8 -6.4 0  -6.4 -6.4 0  -6 -6.4 0  -5.6 -6.4 0  -5.2 -6.4 0  -4.8 -6.4 0  -4.4 -6.4 0  -4 -6.4 0  -3.6 -6.4 0  -3.2 -6.4 0  -2.8 -6.4 0  -2.4 -6.4 0  -2 -6.4 0  -1.6 -6.4 0  -1.199999999999999 -6.4 0  -0.8000000000000007 -6.4 0  -0.4000000000000004 -6.4 0  0 -6.4 0
[...]
<PointData  Scalars="f_401"> 
<DataArray  type="Float64"  Name="f_401"  format="ascii">-2.3897776784382905e-06  8.0424293319470219e-06  6.7457548685703387e-05  -2.7076958835706204e-04  6.2319889180253486e-04  -1.1151863041099610e-03  1.7071697952808728e-03  -2.3361570621213659e-03  2.9267507587096607e-03  -3.4045748675939872e-03  3.7096055273039114e-03  -3.8069260114376351e-03  3.6929050707994867e-03  -3.3956499479822033e-03  2.9696538969499003e-03  -2.4856379368603802e-03  2.0174842415049397e-03  -1.6286974553383401e-03  1.3609182529205088e-03  -1.2266275196922572e-03  1.2073959321724117e-03  -1.2579968496149215e-03  1.3156039818544270e-03  -1.3123455942715251e-03  1.1888579750047150e-03  -9.0629509547403601e-04  4.5453716499716976e-04  1.4494837977931929e-04  -8.4214320304123991e-04  1.5668595055419103e-03  -2.2409167329892296e-03  2.7918545325476287e-03  -3.1656356149332545e-03  3.3359796484311965e-03  -3.3085972612002931e-03  3.1195440582205500e-03  -2.8280113286060431e-03  2.5049059111241171e-03  -2.2193579678527055e-03  2.0256785150193253e-03  -1.9532046264590553e-03  2.0009276038608810e-03  -2.1379058595411321e-03  2.3093815746754462e-03  -2.4474537741122765e-03  2.4843077958712177e-03  -2.3655188052195404e-03  2.0609129089696771e-03  -1.5707173956760428e-03  9.2331087540738568e-04  -1.3584508967925217e-04  2.4448320963421809e-05  -7.9162714490212815e-05  -2.5974544490623552e-04  1.2245547308722153e-03  -2.9202390542696095e-03  5.3005045393568302e-03  -8.1722516993273393e-03  1.1227740289916140e-02  -1.4098511372895004e-02  1.6421054217020340e-02  -1.7902005464712416e-02  1.8370750869752841e-02  -1.7809641147637442e-02  1.6356207593715776e-02  -1.4276979521459619e-02  1.1917799972216521e-02  -9.6399139590421842e-03  7.7537509315638697e-03  -6.4627446242208524e-03  5.8276517249603622e-03  -5.7579946837695477e-03  6.0321836313415311e-03  -6.3425103245912983e-03  6.3565588281978306e-03  -5.7835062221660476e-03  4.4328702328150799e-03  -2.2546673801916964e-03  -6.4658667496285849e-04  4.0267205007057391e-03  -7.5428947630181440e-03  1.0813153874849511e-02  -1.3483492315961172e-02  1.5289980082625937e-02  -1.6104410862627181e-02  1.5955006182472142e-02  -1.5018360750258997e-02  1.3584175362480251e-02  -1.1999397342167796e-02  1.0602224021441098e-02  -9.6583095931158415e-03  9.3110947325925793e-03  -9.5555334707373412e-03  1.0240114242294037e-02  -1.1096780324249758e-02  1.1793138224215263e-02  -1.1997170776886879e-02  1.1442325260211050e-02  -9.9807567647249885e-03  7.6146801862616992e-03  -4.4999416477759287e-03  9.2359947869940931e-04  -1.2278036692246636e-04  5.2790331953692419e-04  -2.2637383468153809e-04  -1.1999274532849844e-03  3.9423872147952999e-03  -7.9228720926958884e-03  1.2801614724312684e-02  -1.8034412584221823e-02  2.2968560697034148e-02  -2.6959695660528332e-02  2.9487815451460932e-02  -3.0250880541040734e-02  2.9218576155075077e-02  -2.6636238723849178e-02  2.2978240585598202e-02  -1.8859548102386450e-02  1.4921963052791889e-02  -1.1716267902048333e-02  9.6022478741860425e-03  -8.6852109905080094e-03  8.8007992461472499e-03  -9.5508585748345035e-03  1.0383589893667226e-02  -1.0702928439886978e-02  9.9866326478427105e-03  -7.8909309311261285e-03  4.3220796735713423e-03  5.3864118755375396e-04  -6.2612770560788482e-03  1.2240088694076520e-02  -1.7799489683390710e-02  2.2313363939467156e-02  -2.5315592858063046e-02  2.6581255945810702e-02  -2.6163435626117646e-02  2.4378834971527909e-02  -2.1744962687135102e-02  1.8880669239266776e-02  -1.6388647661672896e-02  1.4741864869419882e-02  -1.4195142590225624e-02  1.4738396716435702e-02  -1.6100252305393130e-02  1.7801331716356443e-02  -1.9247227519521272e-02  1.9843747206541348e-02  -1.9112849162565018e-02  1.6787551368116351e-02  -1.2868037614329888e-02  7.6285364913938163e-03  -1.5740640439959070e-03  3.4347064676024450e-04  -1.5765835020185811e-03  1.7915046478258780e-03  -3.8341729262209793e-04  -2.9295774154729877e-03  8.0454151668549936e-03  -1.4489143638547806e-02  2.1494173367948469e-02  -2.8138649846368019e-02  3.3511592187368100e-02  -3.6877873863661030e-02  3.7811323884032674e-02  -3.6271163309935579e-02  3.2607555526636960e-02  -2.7495265824687257e-02  2.1807830792377341e-02  -1.6455726317689393e-02  1.2218728019750633e-02  -9.6037243215629387e-03  8.7544755125271712e-03  -9.4300976154652692e-03  1.1056205847652451e-02  -1.2839074282964802e-02  1.3921391966597070e-02  -1.3550419980777268e-02  1.1227031212534837e-02  -6.8076760312369934e-03  5.4010276207456479e-04  6.9739737023182440e-03  -1.4882423891171831e-02  2.2233279318465218e-02  -2.8144352254522453e-02  3.1960358035824532e-02  -3.3368323904186273e-02  3.2449845005422362e-02  -2.9660528039718890e-02  2.5740541664989656e-02  -2.1573041646617677e-02  1.8016953965204877e-02  -1.5745369505314258e-02  1.5119740876987895e-02  -1.6123369515708270e-02  1.8366585514464070e-02  -2.1162621587316084e-02  2.3659967490382055e-02  -2.5006432730799968e-02  2.4514211303514544e-02  -2.1795047026371941e-02  1.6840176542262889e-02  -1.0030034318951992e-02  2.0717186135258497e-03  -7.0683867247561013e-04  3.3247573050529874e-03  -4.6175007264909838e-03  3.7941636537252950e-03  -4.7827400352674248e-04  -5.2137292398905140e-03  1.2686467389388901e-02  -2.0969553726604851e-02  2.8892193609720587e-02  -3.5295957832198167e-02  3.9246096367285932e-02  -4.0202018278804617e-02  3.8115173545854940e-02  -3.3436109035573723e-02  2.7029413635987921e-02  -2.0012445048821735e-02  1.3547945285053639e-02  -8.6292422225574296e-03  5.8981037577181808e-03  -5.5291981908338582e-03  7.2026654978160380e-03  -1.0169839381004093e-02  1.3399758458846485e-02  -1.5779009235009255e-02  1.6327478295038042e-02  -1.4389612920514957e-02  9.7653547288142541e-03  -2.7561710559043445e-03  -5.8825446666885394e-03  1.5073950426665379e-02  -2.3612511440181179e-02  3.0381175487837992e-02  -3.4552545595383490e-02  3.5736606123193057e-02  -3.4047527632902704e-02  3.0077171367595495e-02  -2.4780319685060521e-02  1.9293125383991406e-02  -1.4718725046743691e-02  1.1920075074677777e-02  -1.1358706236449393e-02  1.3009500987333800e-02  -1.6367390516084757e-02  2.0544689464115751e-02  -2.4440850687951293e-02  2.6952886545068933e-02  -2.7187098012173113e-02  2.4632495171708044e-02  -1.9263434519660713e-02  1.1552187138573771e-02  -2.3889167991620044e-03  1.2033114664468211e-03  -5.7260241836319644e-03  8.6261739624993571e-03  -8.9304925410388664e-03  6.1655584896906611e-03  -4.5261948277735431e-04  -7.5089404486002424e-03  1.6566495952964586e-02  -2.5324208662493408e-02  3.2399057729381182e-02  -3.6675144253303447e-02  3.7508853657192004e-02  -3.4846622408663597e-02  2.9233360539530500e-02  -2.1709981321532037e-02  1.3619180464127753e-02  -6.3557220038182125e-03  1.1078361446349540e-03  1.3620202545054129e-03  -8.5615013567025928e-04  -2.2255460115904505e-03  6.9649484374933041e-03  -1.2102420568950743e-02  1.6277764826887677e-02  -1.8290357609060493e-02  1.7329803153527754e-02  -1.3133944056434262e-02  6.0446259388750095e-03  3.0493001732983340e-03  -1.2871202213324891e-02  2.1988495978452444e-02  -2.9073898473582729e-02  3.3147428062862465e-02  -3.3754061095691686e-02  3.1043960185727557e-02  -2.5740368796861660e-02  1.9001229507863922e-02  -1.2200411843641462e-02  6.6694332279023444e-03  -3.4479193802757369e-03  3.0894055114879145e-03  -5.5587358320699377e-03  1.0240204565098042e-02  -1.6054894579878840e-02  2.1665270236013921e-02  -2.5728781187195338e-02  2.7153070644799309e-02  -2.5305072435672860e-02  2.0134877663655994e-02  -1.2191149318416280e-02  2.5250947858359769e-03  -1.7943643839599100e-03  8.5923685390952177e-03  -1.3486942909759905e-02  1.5330822201800256e-02  -1.3554512953933080e-02  8.2760945183089595e-03  -2.8247473588995098e-04  -9.1144512331562920e-03  1.8319932278876551e-02  -2.5751621639972248e-02  3.0132882503832448e-02  -3.0729412882904445e-02  2.7485041183852702e-02  -2.1031359884866603e-02  1.2569412632897079e-02  -3.6455280637086532e-03  -4.1368494717987977e-03  9.4155426047528371e-03  -1.1322545614519060e-02  9.6442582496071416e-03  -4.8591620826339034e-03  -1.9540602001588457e-03  9.3207701266015755e-03  -1.5648807645170754e-02  1.9529084988193939e-02  -2.0002169859376071e-02  1.6741034969985191e-02  -1.0115799669053467e-02  1.1283201803964601e-03  8.7712167763614578e-03  -1.7951513436810507e-02  2.4901359300963048e-02  -2.8508629532697928e-02  2.8265044867570942e-02  -2.4358510554328645e-02  1.7635834534234580e-02  -9.4428195915431980e-03  1.3716104281682859e-03  5.0375139979447620e-03  -8.5842149628778380e-03  8.6322463611239793e-03  -5.2278368525573594e-03  -9.0979419645057218e-04  8.5240018733579205e-03  -1.6057034496673804e-02  2.1942960058970638e-02  -2.4902481182015688e-02  2.4184559509694618e-02  -1.9709695184557889e-02  1.2088061084542205e-02  -2.5090527234572311e-03  2.4188816832573022e-03  -1.1625240772404139e-02  1.8672092726533741e-02  -2.2252295629945115e-02  2.1705603338876656e-02  -1.7141802125428568e-02  9.4200954110245962e-03  1.1413317737839121e-05  -9.3861700272930212e-03  1.6949059857532343e-02  -2.1284148193126840e-02  2.1579085677317769e-02  -1.7776813563560798e-02  1.0586246966857850e-02  -1.3499409026489924e-03  -8.2065555122634842e-03  1.6296863073171668e-02  -2.1407309229059358e-02  2.2579568530644970e-02  -1.9589639281751826e-02  1.2989742411692765e-02  -4.0053186232321949e-03  -5.6936476978127299e-03  1.4304286876055571e-02  -2.0227303381596451e-02  2.2365423301341589e-02  -2.0328114526535219e-02  1.4504362032039930e-02  -5.9899141181831523e-03  -3.6174164781714140e-03  1.2516178062911854e-02  -1.9037717507543711e-02  2.1957816971032884e-02  -2.0725348765656043e-02  1.5565258340119986e-02  -7.4366484328189991e-03  -2.1462121622179385e-03  1.1396539541762660e-02  -1.8588577894826298e-02  2.2379765071536654e-02  -2.2061376216823969e-02  1.7690851438394817e-02  -1.0081102986705953e-02  6.4879776516495939e-04  8.8500609955248707e-03  -1.6647889893009020e-02  2.1295429529766981e-02  -2.1932208255625973e-02  1.8447071617285298e-02  -1.1498809436340995e-02  2.3930321057678292e-03  -3.0038060000825788e-03  1.4467639134379106e-02  -2.3549426688276018e-02  2.8802480162718080e-02  -2.9486129398456337e-02  2.5700290410499482e-02  -1.8363295558885693e-02  9.0371797064028384e-03  3.6691003954218005e-04  -7.9481366046995853e-03  1.2173086577629950e-02  -1.2163869833646812e-02  7.8633914177874669e-03  -4.6919557617115869e-05  -9.8222239215757321e-03  1.9865916092776159e-02  -2.8142413239076389e-02  3.3009888189142286e-02  -3.3434439351786686e-02  2.9185045799563422e-02  -2.0879041923992852e-02  9.8695859768437658e-03  2.0039114831272567e-03  -1.2755852636697164e-02  2.0621575795222651e-02  -2.4383053225445064e-02  2.3592416714054033e-02  -1.8651639694198707e-02  1.0733561207308253e-02  -1.5590565243125481e-03  -6.9279855199559327e-03  1.2927141645729931e-02  -1.5120915389626599e-02  1.2923755025376394e-02  -6.5940908287744487e-03  -2.8115661928614470e-03  1.3633931676817392e-02  -2.3919228392056489e-02  3.1782910094366630e-02  -3.5760939892714644e-02  3.5083051342522917e-02  -2.9816977579733419e-02  2.0856715187416341e-02  -9.7570000579817497e-03  -1.5551243066965804e-03  1.1137825941259755e-02  -1.7394380185050264e-02  1.9368292239315580e-02  -1.6918595472521163e-02  1.0742649203824162e-02  -2.2422360702309568e-03  3.4771050198063630e-03  -1.6767526253776761e-02  2.7495102542091112e-02  -3.4099799572740480e-02  3.5775678206911354e-02  -3.2614756419772774e-02  2.5583573497553556e-02  -1.6336928349223588e-02  6.9036556390150551e-03  6.9681618674268149e-04  -4.8354665624862573e-03  4.5810536188491931e-03  1.2358037345635550e-04  -8.4492207975197034e-03  1.8834329387041267e-02  -2.9276681695676012e-02  3.7708145427307813e-02  -4.2382616395849511e-02  4.2204659605684286e-02  -3.6937459750122539e-02  2.7251205552065463e-02  -1.4602810214763099e-02  9.6934855459042282e-04  1.1515108209352743e-02  -2.0951551260126069e-02  2.6023891648400101e-02  -2.6237776937542319e-02  2.2005888248395705e-02  -1.4563901714611544e-02  5.7329118394781687e-03  2.4272232456402907e-03  -8.0087947419735205e-03  9.6183347769104900e-03  -6.6421962852139214e-03  -6.3404448323155997e-04  1.1074729102222795e-02  -2.2902692633307041e-02  3.4028386575260958e-02  -4.2438146853062249e-02  4.6569147960533380e-02  -4.5601058189406372e-02  3.9609947849740021e-02  -2.9555705418330070e-02  1.7105285508146405e-02  -4.3247498347433284e-03  -6.7024567735188357e-03  1.4259791051154639e-02  -1.7312787162838246e-02  1.5696363979990337e-02  -1.0139386057557506e-02  2.1219899238216393e-03  -3.7806449249361625e-03  1.8240791479565133e-02  -3.0005667830141785e-02  3.7432842891944935e-02  -3.9670162914445722e-02  3.6806582710931776e-02  -2.9847729224489465e-02  2.0520880735854039e-02  -1.0945882774636905e-02  3.2335404599290562e-03  9.1344589167021437e-04  -5.2242258615026031e-04  -4.4645646588916382e-03  1.3177927577608601e-02  -2.3981930845355881e-02  3.4780209258663319e-02  -4.3408367943722624e-02  4.8040350334823262e-02  -4.7532673872659192e-02  4.1642215636351419e-02  -3.1076823046149178e-02  1.7369219895168708e-02  -2.5976549068992827e-03  -1.0994659194404016e-02  2.1410383883180957e-02  -2.7262592860745331e-02  2.8025083087665544e-02  -2.4121860499824614e-02  1.6839229617736366e-02  -8.0770345556456947e-03  -1.4374221114335980e-05  5.4435437604607693e-03  -6.7571370136281679e-03  3.3180547808443935e-03  4.5695671446557640e-03  -1.5711915123966913e-02  2.8244064761558777e-02  -3.9974819816059458e-02  4.8793495525520508e-02  -5.3062739584605174e-02  5.1924072489740257e-02  -4.5459108531837725e-02  3.4676343306564578e-02  -2.1325943637148553e-02  7.5770694507754288e-03  4.3820937194788273e-03  -1.2746998637343323e-02  1.6427012811807837e-02  -1.5241750187694306e-02  9.9469177493885733e-03  -2.0849729069968149e-03  3.8805764090636208e-03  -1.8722047253156973e-02  3.0788447151932460e-02  -3.8388889674161812e-02  4.0646433850283624e-02  -3.7653425929538784e-02  3.0446319168188386e-02  -2.0804794893088015e-02  1.0912801874945739e-02  -2.9448979982030425e-03  -1.3447866087293572e-03  9.5415058533698371e-04  4.1766850672292312e-03  -1.3152145671483482e-02  2.4287436462620996e-02  -3.5423220959004471e-02  4.4329994412791791e-02  -4.9126640025523104e-02  4.8634990832032925e-02  -4.2604151880285719e-02  3.1762635547863481e-02  -1.7688495363103230e-02  2.5216082043813741e-03  1.1428287303763354e-02  -2.2104736134247713e-02  2.8080023653926898e-02  -2.8812979553460346e-02  2.4741134346317244e-02  -1.7190160299089700e-02  8.1176410865742704e-03  2.6085882883839596e-04  -5.8934854686727789e-03  7.2826951416752215e-03  -3.7717256512510102e-03  -4.3266499565210595e-03  1.5783218815622106e-02  -2.8677442997803438e-02  4.0752633637822964e-02  -4.9834928475244421e-02  5.4237889739926971e-02  -5.3077206666566568e-02  4.6436751804331558e-02  -3.5354976025441499e-02  2.1634149382015747e-02  -7.5080135629851611e-03  -4.7701717690378162e-03  1.3342358517752747e-02  -1.7085881348218375e-02  1.5815666890682235e-02  -1.0310844992567956e-02  2.1609168160804291e-03  -3.7733013655870604e-03  1.8193810999099485e-02  -2.9813461782372715e-02  3.6927723441292679e-02  -3.8656794846464115e-02  3.5102926824699003e-02  -2.7324763962776999e-02  1.7133598480026529e-02  -6.7496665374918406e-03  -1.6172592984963756e-03  6.1846065010364853e-03  -5.9332016919721809e-03  8.0011435703431172e-04  8.3078966827482836e-03  -1.9682871287647258e-02  3.1134626614769963e-02  -4.0400674420353583e-02  4.5570533563342758e-02  -4.5445190987883542e-02  3.9764561197964468e-02  -2.9260422894414089e-02  1.5524881967416413e-02  -7.1884002680273743e-04  -1.2825194148404415e-02  2.3031893994607058e-02  -2.8463557522651801e-02  2.8581285510845007e-02  -2.3838247381926875e-02  1.5587735891636343e-02  -5.8232900776968213e-03  -3.2004855349399451e-03  9.3955072118058723e-03  -1.1236274106148582e-02  8.0503681464408530e-03  -1.4907000116283757e-04  -1.1226372744924813e-02  2.4132861107722420e-02  -3.6285413608059397e-02  4.5481827277662458e-02  -5.0012781288317806e-02  4.8980835510747903e-02  -4.2468771863869756e-02  3.1525837934292679e-02  -1.7974435353196858e-02  4.0733019230040505e-03  7.8999832681024510e-03  -1.6069294954561369e-02  1.9304666436887271e-02  -1.7427137417541035e-02  1.1235595629561532e-02  -2.3507032278034879e-03  3.4859120385484659e-03  -1.6788650816464037e-02  2.7317231726235566e-02  -3.3387003166073438e-02  3.4135828462296749e-02  -2.9680851154251533e-02  2.1092654684792152e-02  -1.0191702092639962e-02  -7.9488429507039275e-04  9.6520748346098553e-03  -1.4592992904770388e-02  1.4594569931007611e-02  -9.5900987322134323e-03  4.8271334144832465e-04  1.1022736947084551e-02  -2.2738039275709269e-02  3.2400760119927145e-02  -3.8097786081592672e-02  3.8624172880233835e-02  -3.3710283003019169e-02  2.4074772866393847e-02  -1.1293496760094080e-02  -2.4912455720722060e-03  1.4966890098474753e-02  -2.4078312459646485e-02  2.8407269065174635e-02  -2.7432801710447981e-02  2.1624057942086952e-02  -1.2348267293999494e-02  1.6111214454559682e-03  8.3219049349313266e-03  -1.5352531584750076e-02  1.7945172448114961e-02  -1.5417063506057484e-02  8.0688008489030322e-03  2.8691289202099021e-03  -1.5463884621298930e-02  2.7439427609648324e-02  -3.6600274523384879e-02  4.1240752974712337e-02  -4.0463365056428009e-02  3.4346824228255399e-02  -2.3932386893715355e-02  1.1031014928706123e-02  2.1126543544212890e-03  -1.3236828438941511e-02  2.0481848463038309e-02  -2.2734015636999567e-02  1.9829816798113721e-02  -1.2582480535029496e-02  2.6259661123928771e-03  -3.0710238210144374e-03  1.4763911394741789e-02  -2.3757777053421077e-02  2.8418222617919674e-02  -2.7918287133952436e-02  2.2392167336881971e-02  -1.2909532818333180e-02  1.2752407674783968e-03  1.0308149322260630e-02  -1.9652046787921498e-02  2.4990823870658943e-02  -2.5311771203436830e-02  2.0544409454229782e-02  -1.1573810271960328e-02  7.5437544521665201e-05  1.1797658813524630e-02  -2.1816898095384802e-02  2.8094411368466608e-02  -2.9435758847811525e-02  2.5563269340508208e-02  -1.7168300646053875e-02  5.7826570979681840e-03  6.5068368715655769e-03  -1.7447330374246495e-02  2.5039892895053761e-02  -2.7912025154980962e-02  2.5573198243813100e-02  -1.8505726243658940e-02  8.0740168137070790e-03  3.7308462856233378e-03  -1.4663494902032458e-02  2.2644108494352250e-02  -2.6147298678997580e-02  2.4487434567469529e-02  -1.7947133362125722e-02  7.7249200902721098e-03  4.2881782088446908e-03  -1.5861402307527903e-02  2.4840538039714869e-02  -2.9549990637336605e-02  2.9105591969715173e-02  -2.3579743954396316e-02  1.3988064872158961e-02  -2.1000304596758487e-03  -9.8910439112537014e-03  1.9777072582060681e-02  -2.5746957350280073e-02  2.6724169515833326e-02  -2.2567140821965256e-02  1.4095061547747674e-02  -2.9342786812722879e-03  2.5969686636813098e-03  -1.2453747115494563e-02  1.9729233260321912e-02  -2.2865229490533635e-02  2.1083395818098736e-02  -1.4533539869334465e-02  4.2684746968690481e-03  7.9499055720259875e-03  -1.9977168979088002e-02  2.9684581622344729e-02  -3.5354721504555750e-02  3.6000640748407087e-02  -3.1549013728084531e-02  2.2853096091947290e-02  -1.1533086351987168e-02  -3.2630093312969370e-04  1.0564591371483032e-02  -1.7348065561587547e-02  1.9510898476032899e-02  -1.6771254989482721e-02  9.7820218727171226e-03  -6.7343427847990589e-06  -1.0556105978178923e-02  1.9748815861512611e-02  -2.5660221589070921e-02  2.6985471930655133e-02  -2.3272752949469296e-02  1.5010797033658197e-02  -3.5408002015906432e-03  -9.1908576615826725e-03  2.0992971741801068e-02  -2.9835721872517835e-02  3.4226940858745711e-02  -3.3488237163704138e-02  2.7879459649273089e-02  -1.8548302455523382e-02  7.3144864957086931e-03  3.6711664951550515e-03  -1.2329101081128691e-02  1.7039704907162920e-02  -1.6945726540737876e-02  1.2111973885939244e-02  -3.5124847593598282e-03  -7.1524241244897754e-03  1.7775056956201542e-02  -2.6235629999854768e-02  3.0800127454703032e-02  -3.04464144835819