<?xml version="1.0"?>
<VTKFile type="UnstructuredGrid"  version="0.1"  >
<UnstructuredGrid>
<Piece  NumberOfPoints="2601" NumberOfCells="5000">
<Points>
<DataArray  type="Float64"  NumberOfComponents="3"  format="ascii">-10 -10 0  -9.6 -10 0  -9.199999999999999 -10 0  -8.800000000000001 -10 0  -8.4 -10 0  -8 -10 0  -7.6 -10 0  -7.2 -10 0  -6.8 -10 0  -6.4 -10 0  -6 -10 0  -5.6 -10 0  -5.2 -10 0  -4.8 -10 0  -4.4 -10 0  -4 -10 0  -3.6 -10 0  -3.2 -10 0  -2.8 -10 0  -2.4 -10 0  -2 -10 0  -1.6 -10 0  -1.199999999999999 -10 0  -0.8000000000000007 -10 0  -0.4000000000000004 -10 0  0 -10 0  0.4000000000000004 -10 0  0.8000000000000007 -10 0  1.199999999999999 -10 0  1.6 -10 0  2 -10 0  2.4 -10 0  2.800000000000001 -10 0  3.199999999999999 -10 0  3.6 -10 0  4 -10 0  4.4 -10 0  4.800000000000001 -10 0  5.199999999999999 -10 0  5.6 -10 0  6 -10 0  6.399999999999999 -10 0  6.800000000000001 -10 0  7.199999999999999 -10 0  7.600000000000001 -10 0  8 -10 0  8.399999999999999 -10 0  8.800000000000001 -10 0  9.199999999999999 -10 0  9.600000000000001 -10 0  10 -10 0  -10 -9.6 0  -9.6 -9.6 0  -9.199999999999999 -9.6 0  -8.800000000000001 -9.6 0  -8.4 -9.6 0  -8 -9.6 0  -7.6 -9.6 0  -7.2 -9.6 0  -6.8 -9.6 0  -6.4 -9.6 0  -6 -9.6 0  -5.6 -9.6 0  -5.2 -9.6 0  -4.8 -9.6 0  -4.4 -9.6 0  -4 -9.6 0  -3.6 -9.6 0  -3.2 -9.6 0  -2.8 -9.6 0  -2.4 -9.6 0  -2 -9.6 0  -1.6 -9.6 0  -1.199999999999999 -9.6 0  -0.8000000000000007 -9.6 0  -0.4000000000000004 -9.6 0  0 -9.6 0  0.4000000000000004 -9.6 0  0.8000000000000007 -9.6 0  1.199999999999999 -9.6 0  1.6 -9.6 0  2 -9.6 0  2.4 -9.6 0  2.800000000000001 -9.6 0  3.199999999999999 -9.6 0  3.6 -9.6 0  4 -9.6 0  4.4 -9.6 0  4.800000000000001 -9.6 0  5.199999999999999 -9.6 0  5.6 -9.6 0  6 -9.6 0  6.399999999999999 -9.6 0  6.800000000000001 -9.6 0  7.199999999999999 -9.6 0  7.600000000000001 -9.6 0  8 -9.6 0  8.399999999999999 -9.6 0  8.800000000000001 -9.6 0  9.199999999999999 -9.6 0  9.600000000000001 -9.6 0  10 -9.6 0  -10 -9.199999999999999 0  -9.6 -9.199999999999999 0  -9.199999999999999 -9.199999999999999 0  -8.800000000000001 -9.199999999999999 0  -8.4 -9.199999999999999 0  -8 -9.199999999999999 0  -7.6 -9.199999999999999 0  -7.2 -9.199999999999999 0  -6.8 -9.199999999999999 0  -6.4 -9.199999999999999 0  -6 -9.199999999999999 0  -5.6 -9.199999999999999 0  -5.2 -9.199999999999999 0  -4.8 -9.199999999999999 0  -4.4 -9.199999999999999 0  -4 -9.199999999999999 0  -3.6 -9.199999999999999 0  -3.2 -9.199999999999999 0  -2.8 -9.199999999999999 0  -2.4 -9.199999999999999 0  -2 -9.199999999999999 0  -1.6 -9.199999999999999 0  -1.199999999999999 -9.199999999999999 0  -0.8000000000000007 -9.199999999999999 0  -0.4000000000000004 -9.199999999999999 0  0 -9.199999999999999 0  0.4000000000000004 -9.199999999999999 0  0.8000000000000007 -9.199999999999999 0  1.199999999999999 -9.199999999999999 0  1.6 -9.199999999999999 0  2 -9.199999999999999 0  2.4 -9.199999999999999 0  2.800000000000001 -9.199999999999999 0  3.199999999999999 -9.199999999999999 0  3.6 -9.199999999999999 0  4 -9.199999999999999 0  4.4 -9.199999999999999 0  4.800000000000001 -9.199999999999999 0  5.199999999999999 -9.199999999999999 0  5.6 -9.199999999999999 0  6 -9.199999999999999 0  6.399999999999999 -9.199999999999999 0  6.800000000000001 -9.199999999999999 0  7.199999999999999 -9.199999999999999 0  7.600000000000001 -9.199999999999999 0  8 -9.199999999999999 0  8.399999999999999 -9.199999999999999 0  8.800000000000001 -9.199999999999999 0  9.199999999999999 -9.199999999999999 0  9.600000000000001 -9.199999999999999 0  10 -9.199999999999999 0  -10 -8.800000000000001 0  -9.6 -8.800000000000001 0  -9.199999999999999 -8.800000000000001 0  -8.800000000000001 -8.800000000000001 0  -8.4 -8.800000000000001 0  -8 -8.800000000000001 0  -7.6 -8.800000000000001 0  -7.2 -8.800000000000001 0  -6.8 -8.800000000000001 0  -6.4 -8.800000000000001 0  -6 -8.800000000000001 0  -5.6 -8.800000000000001 0  -5.2 -8.800000000000001 0  -4.8 -8.800000000000001 0  -4.4 -8.800000000000001 0  -4 -8.800000000000001 0  -3.6 -8.800000000000001 0  -3.2 -8.800000000000001 0  -2.8 -8.800000000000001 0  -2.4 -8.800000000000001 0  -2 -8.800000000000001 0  -1.6 -8.800000000000001 0  -1.199999999999999 -8.800000000000001 0  -0.8000000000000007 -8.800000000000001 0  -0.4000000000000004 -8.800000000000001 0  0 -8.800000000000001 0  0.4000000000000004 -8.800000000000001 0  0.8000000000000007 -8.800000000000001 0  1.199999999999999 -8.800000000000001 0  1.6 -8.800000000000001 0  2 -8.800000000000001 0  2.4 -8.800000000000001 0  2.800000000000001 -8.800000000000001 0  3.199999999999999 -8.800000000000001 0  3.6 -8.800000000000001 0  4 -8.800000000000001 0  4.4 -8.800000000000001 0  4.800000000000001 -8.800000000000001 0  5.199999999999999 -8.800000000000001 0  5.6 -8.800000000000001 0  6 -8.800000000000001 0  6.399999999999999 -8.800000000000001 0  6.800000000000001 -8.800000000000001 0  7.199999999999999 -8.800000000000001 0  7.600000000000001 -8.800000000000001 0  8 -8.800000000000001 0  8.399999999999999 -8.800000000000001 0  8.800000000000001 -8.800000000000001 0  9.199999999999999 -8.800000000000001 0  9.600000000000001 -8.800000000000001 0  10 -8.800000000000001 0  -10 -8.4 0  -9.6 -8.4 0  -9.199999999999999 -8.4 0  -8.800000000000001 -8.4 0  -8.4 -8.4 0  -8 -8.4 0  -7.6 -8.4 0  -7.2 -8.4 0  -6.8 -8.4 0  -6.4 -8.4 0  -6 -8.4 0  -5.6 -8.4 0  -5.2 -8.4 0  -4.8 -8.4 0  -4.4 -8.4 0  -4 -8.4 0  -3.6 -8.4 0  -3.2 -8.4 0  -2.8 -8.4 0  -2.4 -8.4 0  -2 -8.4 0  -1.6 -8.4 0  -1.199999999999999 -8.4 0  -0.8000000000000007 -8.4 0  -0.4000000000000004 -8.4 0  0 -8.4 0  0.4000000000000004 -8.4 0  0.8000000000000007 -8.4 0  1.199999999999999 -8.4 0  1.6 -8.4 0  2 -8.4 0  2.4 -8.4 0  2.800000000000001 -8.4 0  3.199999999999999 -8.4 0  3.6 -8.4 0  4 -8.4 0  4.4 -8.4 0  4.800000000000001 -8.4 0  5.199999999999999 -8.4 0  5.6 -8.4 0  6 -8.4 0  6.399999999999999 -8.4 0  6.800000000000001 -8.4 0  7.199999999999999 -8.4 0  7.600000000000001 -8.4 0  8 -8.4 0  8.399999999999999 -8.4 0  8.800000000000001 -8.4 0  9.199999999999999 -8.4 0  9.600000000000001 -8.4 0  10 -8.4 0  -10 -8 0  -9.6 -8 0  -9.199999999999999 -8 0  -8.800000000000001 -8 0  -8.4 -8 0  -8 -8 0  -7.6 -8 0  -7.2 -8 0  -6.8 -8 0  -6.4 -8 0  -6 -8 0  -5.6 -8 0  -5.2 -8 0  -4.8 -8 0  -4.4 -8 0  -4 -8 0  -3.6 -8 0  -3.2 -8 0  -2.8 -8 0  -2.4 -8 0  -2 -8 0  -1.6 -8 0  -1.199999999999999 -8 0  -0.8000000000000007 -8 0  -0.4000000000000004 -8 0  0 -8 0  0.4000000000000004 -8 0  0.8000000000000007 -8 0  1.199999999999999 -8 0  1.6 -8 0  2 -8 0  2.4 -8 0  2.800000000000001 -8 0  3.199999999999999 -8 0  3.6 -8 0  4 -8 0  4.4 -8 0  4.800000000000001 -8 0  5.199999999999999 -8 0  5.6 -8 0  6 -8 0  6.399999999999999 -8 0  6.800000000000001 -8 0  7.199999999999999 -8 0  7.600000000000001 -8 0  8 -8 0  8.399999999999999 -8 0  8.800000000000001 -8 0  9.199999999999999 -8 0  9.600000000000001 -8 0  10 -8 0  -10 -7.6 0  -9.6 -7.6 0  -9.199999999999999 -7.6 0  -8.800000000000001 -7.6 0  -8.4 -7.6 0  -8 -7.6 0  -7.6 -7.6 0  -7.2 -7.6 0  -6.8 -7.6 0  -6.4 -7.6 0  -6 -7.6 0  -5.6 -7.6 0  -5.2 -7.6 0  -4.8 -7.6 0  -4.4 -7.6 0  -4 -7.6 0  -3.6 -7.6 0  -3.2 -7.6 0  -2.8 -7.6 0  -2.4 -7.6 0  -2 -7.6 0  -1.6 -7.6 0  -1.199999999999999 -7.6 0  -0.8000000000000007 -7.6 0  -0.4000000000000004 -7.6 0  0 -7.6 0  0.4000000000000004 -7.6 0  0.8000000000000007 -7.6 0  1.199999999999999 -7.6 0  1.6 -7.6 0  2 -7.6 0  2.4 -7.6 0  2.800000000000001 -7.6 0  3.199999999999999 -7.6 0  3.6 -7.6 0  4 -7.6 0  4.4 -7.6 0  4.800000000000001 -7.6 0  5.199999999999999 -7.6 0  5.6 -7.6 0  6 -7.6 0  6.399999999999999 -7.6 0  6.800000000000001 -7.6 0  7.199999999999999 -7.6 0  7.600000000000001 -7.6 0  8 -7.6 0  8.399999999999999 -7.6 0  8.800000000000001 -7.6 0  9.199999999999999 -7.6 0  9.600000000000001 -7.6 0  10 -7.6 0  -10 -7.2 0  -9.6 -7.2 0  -9.199999999999999 -7.2 0  -8.800000000000001 -7.2 0  -8.4 -7.2 0  -8 -7.2 0  -7.6 -7.2 0  -7.2 -7.2 0  -6.8 -7.2 0  -6.4 -7.2 0  -6 -7.2 0  -5.6 -7.2 0  -5.2 -7.2 0  -4.8 -7.2 0  -4.4 -7.2 0  -4 -7.2 0  -3.6 -7.2 0  -3.2 -7.2 0  -2.8 -7.2 0  -2.4 -7.2 0  -2 -7.2 0  -1.6 -7.2 0  -1.199999999999999 -7.2 0  -0.8000000000000007 -7.2 0  -0.4000000000000004 -7.2 0  0 -7.2 0  0.4000000000000004 -7.2 0  0.8000000000000007 -7.2 0  1.199999999999999 -7.2 0  1.6 -7.2 0  2 -7.2 0  2.4 -7.2 0  2.800000000000001 -7.2 0  3.199999999999999 -7.2 0  3.6 -7.2 0  4 -7.2 0  4.4 -7.2 0  4.800000000000001 -7.2 0  5.199999999999999 -7.2 0  5.6 -7.2 0  6 -7.2 0  6.399999999999999 -7.2 0  6.800000000000001 -7.2 0  7.199999999999999 -7.2 0  7.600000000000001 -7.2 0  8 -7.2 0  8.399999999999999 -7.2 0  8.800000000000001 -7.2 0  9.199999999999999 -7.2 0  9.600000000000001 -7.2 0  10 -7.2 0  -10 -6.8 0  -9.6 -6.8 0  -9.199999999999999 -6.8 0  -8.800000000000001 -6.8 0  -8.4 -6.8 0  -8 -6.8 0  -7.6 -6.8 0  -7.2 -6.8 0  -6.8 -6.8 0  -6.4 -6.8 0  -6 -6.8 0  -5.6 -6.8 0  -5.2 -6.8 0  -4.8 -6.8 0  -4.4 -6.8 0  -4 -6.8 0  -3.6 -6.8 0  -3.2 -6.8 0  -2.8 -6.8 0  -2.4 -6.8 0  -2 -6.8 0  -1.6 -6.8 0  -1.199999999999999 -6.8 0  -0.8000000000000007 -6.8 0  -0.4000000000000004 -6.8 0  0 -6.8 0  0.4000000000000004 -6.8 0  0.8000000000000007 -6.8 0  1.199999999999999 -6.8 0  1.6 -6.8 0  2 -6.8 0  2.4 -6.8 0  2.800000000000001 -6.8 0  3.199999999999999 -6.8 0  3.6 -6.8 0  4 -6.8 0  4.4 -6.8 0  4.800000000000001 -6.8 0  5.199999999999999 -6.8 0  5.6 -6.8 0  6 -6.8 0  6.399999999999999 -6.8 0  6.800000000000001 -6.8 0  7.199999999999999 -6.8 0  7.600000000000001 -6.8 0  8 -6.8 0  8.399999999999999 -6.8 0  8.800000000000001 -6.8 0  9.199999999999999 -6.8 0  9.600000000000001 -6.8 0  10 -6.8 0  -10 -6.4 0  -9.6 -6.4 0  -9.199999999999999 -6.4 0  -8.800000000000001 -6.4 0  -8.4 -6.4 0  -8 -6.4 0  -7.6 -6.4 0  -7.2 -6.4 0  -6.8 -6.4 0  -6.4 -6.4 0  -6 -6.4 0  -5.6 -6.4 0  -5.2 -6.4 0  -4.8 -6.4 0  -4.4 -6.4 0  -4 -6.4 0  -3.6 -6.4 0  -3.2 -6.4 0  -2.8 -6.4 0  -2.4 -6.4 0  -2 -6.4 0  -1.6 -6.4 0  -1.199999999999999 -6.4 0  -0.8000000000000007 -6.4 0  -0.4000000000000004 -6.4 0  0 -6.4 0
[...]
<PointData  Scalars="f_225"> 
<DataArray  type="Float64"  Name="f_225"  format="ascii">-1.0944817628691754e-04  7.5265379788214603e-04  -1.3125398143994287e-03  1.7882364571156061e-03  -2.1534208603931296e-03  2.3858982923046280e-03  -2.4713913109723172e-03  2.4046441712380902e-03  -2.1897721900297727e-03  1.8400127051158243e-03  -1.3769109280245525e-03  8.2899327630005985e-04  -2.3001041942950982e-04  -3.8314158157017704e-04  9.7269393070616226e-04  -1.5023315358271873e-03  1.9394299159186713e-03  -2.2570647833755303e-03  2.4356705127816132e-03  -2.4642453365759250e-03  2.3410290291010550e-03  -2.0736113343355648e-03  1.6784644577229613e-03  -1.1799284190228984e-03  6.0871176580060441e-04  -7.1851983527204472e-15  -6.0871176578673118e-04  1.1799284190098312e-03  -1.6784644577116866e-03  2.0736113343266032e-03  -2.3410290290945936e-03  2.4642453365722699e-03  -2.4356705127806261e-03  2.2570647833772663e-03  -1.9394299159227592e-03  1.5023315358330569e-03  -9.7269393071305584e-04  3.8314158157752218e-04  2.3001041942220321e-04  -8.2899327629353653e-04  1.3769109280189829e-03  -1.8400127051114790e-03  2.1897721900265305e-03  -2.4046441712360605e-03  2.4713913109712005e-03  -2.3858982923043353e-03  2.1534208603934475e-03  -1.7882364571160478e-03  1.3125398143999686e-03  -7.5265379788251466e-04  1.0944817628698861e-04  7.5265379788222529e-04  -3.7122058270458243e-03  6.4430957996396039e-03  -8.7761371370118964e-03  1.0568167733412437e-02  -1.1709053624551831e-02  1.2128614302993368e-02  -1.1801043840252120e-02  1.0746536356322211e-02  -9.0300548436258142e-03  6.7573344376300574e-03  -4.0683713994121764e-03  1.1288006027386156e-03  1.8803067184936188e-03  -4.7735962807084345e-03  7.3728479966779599e-03  -9.5179538336071529e-03  1.1076780048831976e-02  -1.1953306298949357e-02  1.2093540263674879e-02  -1.1488843451338923e-02  1.0176463319627927e-02  -8.2372389307920763e-03  5.7906214652560847e-03  -2.9873163170053914e-03  3.5111275083936383e-14  2.9873163169368815e-03  -5.7906214651927915e-03  8.2372389307371913e-03  -1.0176463319583955e-02  1.1488843451307495e-02  -1.2093540263657061e-02  1.1953306298945140e-02  -1.1076780048840730e-02  9.5179538336271595e-03  -7.3728479967067094e-03  4.7735962807424082e-03  -1.8803067185299055e-03  -1.1288006027032256e-03  4.0683713993801681e-03  -6.7573344376032334e-03  9.0300548436045621e-03  -1.0746536356306824e-02  1.1801043840242100e-02  -1.2128614302988106e-02  1.1709053624550466e-02  -1.0568167733413547e-02  8.7761371370141360e-03  -6.4430957996419276e-03  3.7122058270475651e-03  -7.5265379788250458e-04  -1.3125398143994961e-03  6.4430957996396091e-03  -1.1177745114030682e-02  1.5223874905348553e-02  -1.8332116972994826e-02  2.0311040726504942e-02  -2.1038787337908628e-02  2.0470554379694885e-02  -1.8641358142256512e-02  1.5663880905165635e-02  -1.1721532736118279e-02  7.0571554541304432e-03  -1.9580650498887677e-03  -3.2616457771781075e-03  8.2804546767349992e-03  -1.2789214480012650e-02  1.6510195829094774e-02  -1.9214194594981637e-02  2.0734650290600284e-02  -2.0977905805581364e-02  1.9928976477961352e-02  -1.7652473134250984e-02  1.4288622235222028e-02  -1.0044628273278020e-02  5.1819104753591605e-03  -6.0385550938121935e-14  -5.1819104752413416e-03  1.0044628273169509e-02  -1.4288622235128218e-02  1.7652473134176363e-02  -1.9928976477908884e-02  2.0977905805552269e-02  -2.0734650290594979e-02  1.9214194594998468e-02  -1.6510195829130735e-02  1.2789214480063373e-02  -8.2804546767948906e-03  3.2616457772412190e-03  1.9580650498274739e-03  -7.0571554540754767e-03  1.1721532736072515e-02  -1.5663880905130219e-02  1.8641358142231130e-02  -2.0470554379678645e-02  2.1038787337900537e-02  -2.0311040726503037e-02  1.8332116972997088e-02  -1.5223874905352907e-02  1.1177745114034963e-02  -6.4430957996424983e-03  1.3125398144000636e-03  1.7882364571155101e-03  -8.7761371370114541e-03  1.5223874905347913e-02  -2.0733999572776936e-02  2.4966964728013928e-02  -2.7661992237769186e-02  2.8653072678308977e-02  -2.7879164227630159e-02  2.5387944253576929e-02  -2.1332870663389260e-02  1.5963729344049764e-02  -9.6112484251639312e-03  2.6667266676709748e-03  4.4420692640423668e-03  -1.1277253972497179e-02  1.7417795873299384e-02  -2.2485451652518928e-02  2.6168065117570024e-02  -2.8238795273511672e-02  2.8570089208558056e-02  -2.7141539081440839e-02  2.4041139229795921e-02  -1.9459865957649918e-02  1.3679913869528557e-02  -7.0573133628626990e-03  8.1408723152982659e-14  7.0573133627044506e-03  -1.3679913869383392e-02  1.9459865957525298e-02  -2.4041139229697837e-02  2.7141539081373168e-02  -2.8570089208522737e-02  2.8238795273508564e-02  -2.6168065117596891e-02  2.2485451652571268e-02  -1.7417795873371205e-02  1.1277253972580687e-02  -4.4420692641295037e-03  -2.6667266675872805e-03  9.6112484250896642e-03  -1.5963729343988667e-02  2.1332870663342735e-02  -2.5387944253544844e-02  2.7879164227610921e-02  -2.8653072678300712e-02  2.7661992237768981e-02  -2.4966964728018789e-02  2.0733999572783872e-02  -1.5223874905354495e-02  8.7761371370156018e-03  -1.7882364571163707e-03  -2.1534208603928525e-03  1.0568167733410766e-02  -1.8332116972992009e-02  2.4966964728011624e-02  -3.0063952197581727e-02  3.3309079760024375e-02  -3.4502439986162890e-02  3.3570520100825403e-02  -3.0570723600347571e-02  2.5687831377205234e-02  -1.9222618575363254e-02  1.1573327290929084e-02  -3.2111358463614579e-03  -5.3488645479780146e-03  1.3579398064998053e-02  -2.0973483110425527e-02  2.7075661138073928e-02  -3.1510051806486951e-02  3.4003506337495444e-02  -3.4402432874263519e-02  3.2682257425879088e-02  -2.8948937616881068e-02  2.3432435990418842e-02  -1.6472554888814751e-02  8.4980054470215460e-03  -9.5984755456285750e-14  -8.4980054468351308e-03  1.6472554888644561e-02  -2.3432435990274159e-02  2.8948937616768880e-02  -3.2682257425804405e-02  3.4402432874227937e-02  -3.4003506337498615e-02  3.1510051806525621e-02  -2.7075661138142495e-02  2.0973483110516292e-02  -1.3579398065101824e-02  5.3488645480850487e-03  3.2111358462597901e-03  -1.1573327290839616e-02  1.9222618575290812e-02  -2.5687831377151596e-02  3.0570723600312429e-02  -3.3570520100806460e-02  3.4502439986157429e-02  -3.3309079760028192e-02  3.0063952197590928e-02  -2.4966964728022709e-02  1.8332116973001883e-02  -1.0568167733416811e-02  2.1534208603941327e-03  2.3858982923038708e-03  -1.1709053624548214e-02  2.0311040726499082e-02  -2.7661992237762882e-02  3.3309079760020156e-02  -3.6904432261638913e-02  3.8226569383873137e-02  -3.7194042165755899e-02  3.3870447300508616e-02  -2.8460507782388920e-02  2.1297461405636837e-02  -1.2822533639883801e-02  3.5577590316750573e-03  5.9261749027675059e-03  -1.5045080648779000e-02  2.3237255236440435e-02  -2.9998079813298068e-02  3.4911102999401589e-02  -3.7673693359291507e-02  3.8115680850456572e-02  -3.6209838968450134e-02  3.2073561902930828e-02  -2.5961633387241893e-02  1.8250532657680132e-02  -9.4152442361328751e-03  1.0352453611764644e-13  9.4152442359322075e-03  -1.8250532657498125e-02  2.5961633387088987e-02  -3.2073561902814948e-02  3.6209838968376394e-02  -3.8115680850426568e-02  3.7673693359304254e-02  -3.4911102999452985e-02  2.9998079813381342e-02  -2.3237255236546756e-02  1.5045080648898175e-02  -5.9261749028887986e-03  -3.5577590315611792e-03  1.2822533639784908e-02  -2.1297461405558264e-02  2.8460507782332729e-02  -3.3870447300473998e-02  3.7194042165740349e-02  -3.8226569383872866e-02  3.6904432261648752e-02  -3.3309079760035366e-02  2.7661992237779171e-02  -2.0311040726512904e-02  1.1709053624556808e-02  -2.3858982923055908e-03  -2.4713913109711740e-03  1.2128614302987473e-02  -2.1038787337899198e-02  2.8653072678297954e-02  -3.4502439986153023e-02  3.8226569383867037e-02  -3.9596052066369680e-02  3.8526522711456380e-02  -3.5083855786332323e-02  2.9480107098578484e-02  -2.2060451084523008e-02  1.3281918542878435e-02  -3.6852444579500783e-03  -6.1384400589013354e-03  1.5584020072573288e-02  -2.4069670498180075e-02  3.1072695194173019e-02  -3.6161723876298631e-02  3.9023283594691725e-02  -3.9481108024757371e-02  3.7506995153741243e-02  -3.3222544543919007e-02  2.6891667151909986e-02  -1.8904329075739336e-02  9.7525305746961940e-03  -1.0363232946206482e-13  -9.7525305744957970e-03  1.8904329075559143e-02  -2.6891667151760914e-02  3.3222544543809060e-02  -3.7506995153675816e-02  3.9481108024737692e-02  -3.9023283594716192e-02  3.6161723876362371e-02  -3.1072695194268411e-02  2.4069670498297363e-02  -1.5584020072702124e-02  6.1384400590304639e-03  3.6852444578304492e-03  -1.3281918542776203e-02  2.2060451084443846e-02  -2.9480107098524323e-02  3.5083855786302125e-02  -3.8526522711446777e-02  3.9596052066376362e-02  -3.8226569383884003e-02  3.4502439986174700e-02  -2.8653072678319725e-02  2.1038787337917048e-02  -1.2128614302998544e-02  2.4713913109733069e-03  2.4046441712363572e-03  -1.1801043840244132e-02  2.0470554379681774e-02  -2.7879164227613582e-02  3.3570520100808396e-02  -3.7194042165741362e-02  3.8526522711447374e-02  -3.7485877109178112e-02  3.4136200663401867e-02  -2.8683820553342343e-02  2.1464586459863499e-02  -1.2923182911726316e-02  3.5857377010035103e-03  5.9725863871856934e-03  -1.5163020281117689e-02  2.3419455459295486e-02  -3.0233314975684246e-02  3.5184880700868532e-02  -3.7969147088241798e-02  3.8414608922954598e-02  -3.6493825759484726e-02  3.2325112290834269e-02  -2.6165250516582816e-02  1.8393672617023273e-02  -9.4890888297644790e-03  9.6835323723847265e-14  9.4890888295778887e-03  -1.8393672616857128e-02  2.6165250516448278e-02  -3.2325112290739283e-02  3.6493825759433884e-02  -3.8414608922948824e-02  3.7969147088278733e-02  -3.5184880700942625e-02  3.0233314975787691e-02  -2.3419455459418533e-02  1.5163020281249507e-02  -5.9725863873161056e-03  -3.5857377008845399e-03  1.2923182911626968e-02  -2.1464586459788802e-02  2.8683820553294232e-02  -3.4136200663379100e-02  3.7485877109177015e-02  -3.8526522711462355e-02  3.7194042165765981e-02  -3.3570520100836873e-02  2.7879164227640616e-02  -2.0470554379703052e-02  1.1801043840257127e-02  -2.4046441712391575e-03  -2.1897721900275839e-03  1.0746536356312087e-02  -1.8641358142239356e-02  2.5387944253554350e-02  -3.0570723600322276e-02  3.3870447300483823e-02  -3.5083855786311999e-02  3.4136200663389828e-02  -3.1085849929586292e-02  2.6120693092274258e-02  -1.9546567827208303e-02  1.1768421197082152e-02  -3.2653659122504654e-03  -5.4388318733678510e-03  1.3808015348504768e-02  -2.1326663103857262e-02  2.7531644136140461e-02  -3.2040745757011796e-02  3.4576217143447684e-02  -3.4981878287647754e-02  3.3232740459800528e-02  -2.9436545571518397e-02  2.3827129607730212e-02  -1.6750018917711541e-02  8.6411465990569054e-03  -8.4382928291264983e-14  -8.6411465988948805e-03  1.6750018917569321e-02  -2.3827129607618514e-02  2.9436545571444185e-02  -3.3232740459767852e-02  3.4981878287656559e-02  -3.4576217143495354e-02  3.2040745757092794e-02  -2.7531644136246699e-02  2.1326663103979293e-02  -1.3808015348632652e-02  5.4388318734918248e-03  3.2653659121392679e-03  -1.1768421196991414e-02  1.9546567827142897e-02  -2.6120693092236032e-02  3.1085849929573719e-02  -3.4136200663398661e-02  3.5083855786336056e-02  -3.3870447300516554e-02  3.0570723600356894e-02  -2.5387944253585808e-02  1.8641358142263562e-02  -1.0746536356326429e-02  2.1897721900305846e-03  1.8400127051133937e-03  -9.0300548436134092e-03  1.5663880905144371e-02  -2.1332870663360304e-02  2.5687831377170858e-02  -2.8460507782353060e-02  2.9480107098545188e-02  -2.8683820553316065e-02  2.6120693092259277e-02  -2.1948602899008351e-02  1.6424536842471919e-02  -9.8887609233852900e-03  2.7438608239986543e-03  4.5700563651793714e-03  -1.1602471715864192e-02  1.7920205436413924e-02  -2.3134099846114014e-02  2.6922990727878290e-02  -2.9053490463917787e-02  2.9394364341182939e-02  -2.7924614461413300e-02  2.4734773289588986e-02  -2.0021327149061196e-02  1.4074613156387793e-02  -7.2609351160496365e-03  6.7447990239378366e-14  7.2609351159210580e-03  -1.4074613156276934e-02  2.0021327148977620e-02  -2.4734773289538936e-02  2.7924614461399690e-02  -2.9394364341205206e-02  2.9053490463973073e-02  -2.6922990727961157e-02  2.3134099846216862e-02  -1.7920205436528121e-02  1.1602471715981022e-02  -4.5700563652901491e-03  -2.7438608239017618e-03  9.8887609233087315e-03  -1.6424536842420002e-02  2.1948602898982605e-02  -2.6120693092258319e-02  2.8683820553334887e-02  -2.9480107098577690e-02  2.8460507782392196e-02  -2.5687831377210493e-02  2.1332870663394683e-02  -1.5663880905170232e-02  9.0300548436284388e-03  -1.8400127051164024e-03  -1.3769109280215984e-03  6.7573344376154441e-03  -1.1721532736092740e-02  1.5963729344014157e-02  -1.9222618575319959e-02  2.1297461405589448e-02  -2.2060451084476185e-02  2.1464586459821890e-02  -1.9546567827176776e-02  1.6424536842454807e-02  -1.2290799698878372e-02  7.3999818149092390e-03  -2.0533436923547720e-03  -3.4197759357368959e-03  8.6822465974941612e-03  -1.3409912602620977e-02  1.7311560407140592e-02  -2.0146856861518438e-02  2.1741153367197015e-02  -2.1996244017991235e-02  2.0896415028684966e-02  -1.8509412801903175e-02  1.4982270989339372e-02  -1.0532253583801688e-02  5.4334719267864493e-03  -4.7830276265364564e-14  -5.4334719266962263e-03  1.0532253583726437e-02  -1.4982270989286823e-02  1.8509412801878199e-02  -2.0896415028689379e-02  2.1996244018024122e-02  -2.1741153367255326e-02  2.0146856861597159e-02  -1.7311560407233726e-02  1.3409912602721069e-02  -8.6822465975936250e-03  3.4197759358286202e-03  2.0533436922775031e-03  -7.3999818148514735e-03  1.2290799698843455e-02  -1.6424536842443816e-02  1.9546567827187881e-02  -2.1464586459850304e-02  2.2060451084515695e-02  -2.1297461405633496e-02  1.9222618575362449e-02  -1.5963729344050423e-02  1.1721532736119273e-02  -6.7573344376308199e-03  1.3769109280246117e-03  8.2899327629667389e-04  -4.0683713993952906e-03  7.0571554541006276e-03  -9.6112484251224470e-03  1.1573327290877809e-02  -1.2822533639826317e-02  1.3281918542819167e-02  -1.2923182911670566e-02  1.1768421197034822e-02  -9.8887609233512773e-03  7.3999818148916272e-03  -4.4553843456460679e-03  1.2363469895112372e-03  2.0588461745800514e-03  -5.2272193008306147e-03  8.0736077011825235e-03  -1.0422679687805801e-02  1.2129736794380100e-02  -1.3089627083296944e-02  1.3243222474581011e-02  -1.2581061084372163e-02  1.1143930193417613e-02  -9.0203539219114309e-03  6.3411403571710925e-03  -3.2713240194469483e-03  2.6937121220664127e-14  3.2713240193971605e-03  -6.3411403571328323e-03  9.0203539218902118e-03  -1.1143930193416893e-02  1.2581061084392589e-02  -1.3243222474621123e-02  1.3089627083353884e-02  -1.2129736794449713e-02  1.0422679687883100e-02  -8.0736077012620953e-03  5.2272193009065254e-03  -2.0588461746468244e-03  -1.2363469894582381e-03  4.4553843456104939e-03  -7.3999818148756235e-03  9.8887609233553886e-03  -1.1768421197057288e-02  1.2923182911706712e-02  -1.3281918542863308e-02  1.2822533639872697e-02  -1.1573327290920992e-02  9.6112484251585622e-03  -7.0571554541271446e-03  4.0683713994104174e-03  -8.2899327629968808e-04  -2.3001041942575124e-04  1.1288006027201627e-03  -1.9580650498561515e-03  2.6667266676254409e-03  -3.2111358463049614e-03  3.5577590316106162e-03  -3.6852444578820416e-03  3.5857377009368106e-03  -3.2653659121903893e-03  2.7438608239500825e-03  -2.0533436923210403e-03  1.2363469894940942e-03  -3.4319468818390706e-04  -5.7109749783729635e-04  1.4502109743108906e-03  -2.2399934696967477e-03  2.8917948671287304e-03  -3.3654641616126359e-03  3.6318229098253876e-03  -3.6744627860700722e-03  3.4907564933696496e-03  -3.0920197386098635e-03  2.5028142796648190e-03  -1.7594349684231804e-03  9.0767398624062693e-04  -5.9312056924102371e-15  -9.0767398623141523e-04  1.7594349684213581e-03  -2.5028142796739493e-03  3.0920197386311962e-03  -3.4907564934030448e-03  3.6744627861136281e-03  -3.6318229098764739e-03  3.3654641616679771e-03  -2.8917948671848747e-03  2.2399934697500332e-03  -1.4502109743577620e-03  5.7109749787459508e-04  3.4319468815859414e-04  -1.2363469894826099e-03  2.0533436923242730e-03  -2.7438608239682490e-03  3.2653659122216560e-03  -3.5857377009773615e-03  3.6852444579272858e-03  -3.5577590316555959e-03  3.2111358463456962e-03  -2.6667266676589554e-03  1.9580650498804172e-03  -1.1288006027340629e-03  2.3001041942846313e-04  -3.8314158157395347e-04  1.8803067185121181e-03  -3.2616457772105000e-03  4.4420692640878391e-03  -5.3488645480351269e-03  5.9261749028334792e-03  -6.1384400589724643e-03  5.9725863872576871e-03  -5.4388318734353803e-03  4.5700563652379227e-03  -3.4197759357833652e-03  2.0588461746120007e-03  -5.7109749785340966e-04  -9.5182865887948238e-04  2.4161246887321746e-03  -3.7315950054002869e-03  4.8172116750388270e-03  -5.6061052997757538e-03  6.0496837547972639e-03  -6.1206251037216313e-03  5.8145603627006888e-03  -5.1503424810431537e-03  4.1688849848108321e-03  -2.9306418266800117e-03  1.5118836746682151e-03  -1.3805477008978291e-14  -1.5118836746393861e-03  2.9306418266477987e-03  -4.1688849847744828e-03  5.1503424810026800e-03  -5.8145603626579218e-03  6.1206251036784497e-03  -6.0496837547561180e-03  5.6061052997386637e-03  -4.8172116750079168e-03  3.7315950053772320e-03  -2.4161246887181922e-03  9.5182865887472013e-04  5.7109749784894752e-04  -2.0588461745985184e-03  3.4197759357613099e-03  -4.5700563652077758e-03  5.4388318733984394e-03  -5.9725863872166773e-03  6.1384400589306540e-03  -5.9261749027941703e-03  5.3488645480008349e-03  -4.4420692640605294e-03  3.2616457771910464e-03  -1.8803067185009905e-03  3.8314158157169074e-04  9.7269393070939438e-04  -4.7735962807244443e-03  8.2804546767633741e-03  -1.1277253972537487e-02  1.3579398065049169e-02  -1.5045080648839380e-02  1.5584020072639973e-02  -1.5163020281187014e-02  1.3808015348572473e-02  -1.1602471715926533e-02  8.6822465975479254e-03  -5.2272193008733297e-03  1.4502109743405585e-03  2.4161246887169975e-03  -6.1336322892819066e-03  9.4733243702188278e-03  -1.2229486276113973e-02  1.4232347425092414e-02  -1.5358538501461063e-02  1.5538690460632585e-02  -1.4761707293001497e-02  1.3075449376887123e-02  -1.0583785342528492e-02  7.4401940513864687e-03  -3.8383107902929497e-03  3.2034848871533984e-14  3.8383107902291336e-03  -7.4401940513235260e-03  1.0583785342467851e-02  -1.3075449376831062e-02  1.4761707292952614e-02  -1.5538690460592960e-02  1.5358538501432444e-02  -1.4232347425076392e-02  1.2229486276110754e-02  -9.4733243702282578e-03  6.1336322893025021e-03  -2.4161246887459509e-03  -1.4502109743059707e-03  5.2272193008357452e-03  -8.6822465975087328e-03  1.1602471715887248e-02  -1.3808015348533920e-02  1.5163020281150357e-02  -1.5584020072606817e-02  1.5045080648810862e-02  -1.3579398065026253e-02  1.1277253972520048e-02  -8.2804546767516838e-03  4.7735962807178359e-03  -9.7269393070806916e-04  -1.5023315358294060e-03  7.3728479966892408e-03  -1.2789214480032837e-02  1.7417795873328638e-02  -2.0973483110463934e-02  2.3237255236487536e-02  -2.4069670498234080e-02  2.3419455459354224e-02  -2.1326663103917575e-02  1.7920205436472950e-02  -1.3409912602676204e-02  8.0736077012310992e-03  -2.2399934697365548e-03  -3.7315950053716366e-03  9.4733243702037149e-03  -1.4631520479885434e-02  1.8888453642535188e-02  -2.1981909736906603e-02  2.3721341698331979e-02  -2.3999606509340382e-02  2.2799564751288151e-02  -2.0195136222176283e-02  1.6346746611539089e-02  -1.1491445711941151e-02  5.9283058578159823e-03  -4.8454346122368278e-14  -5.9283058577208050e-03  1.1491445711851280e-02  -1.6346746611457994e-02  2.0195136222108240e-02  -2.2799564751236328e-02  2.3999606509306957e-02  -2.3721341698318705e-02  2.1981909736913479e-02  -1.8888453642561559e-02  1.4631520479928444e-02  -9.4733243702591306e-03  3.7315950054340771e-03  2.2399934696728822e-03  -8.0736077011708592e-03  1.3409912602622538e-02  -1.7920205436427694e-02  2.1326663103881243e-02  -2.3419455459326312e-02  2.4069670498214020e-02  -2.3237255236474446e-02  2.0973483110456562e-02  -1.741779587332506