<?xml version="1.0"?>
<VTKFile type="UnstructuredGrid"  version="0.1"  >
<UnstructuredGrid>
<Piece  NumberOfPoints="2601" NumberOfCells="5000">
<Points>
<DataArray  type="Float64"  NumberOfComponents="3"  format="ascii">-10 -10 0  -9.6 -10 0  -9.199999999999999 -10 0  -8.800000000000001 -10 0  -8.4 -10 0  -8 -10 0  -7.6 -10 0  -7.2 -10 0  -6.8 -10 0  -6.4 -10 0  -6 -10 0  -5.6 -10 0  -5.2 -10 0  -4.8 -10 0  -4.4 -10 0  -4 -10 0  -3.6 -10 0  -3.2 -10 0  -2.8 -10 0  -2.4 -10 0  -2 -10 0  -1.6 -10 0  -1.199999999999999 -10 0  -0.8000000000000007 -10 0  -0.4000000000000004 -10 0  0 -10 0  0.4000000000000004 -10 0  0.8000000000000007 -10 0  1.199999999999999 -10 0  1.6 -10 0  2 -10 0  2.4 -10 0  2.800000000000001 -10 0  3.199999999999999 -10 0  3.6 -10 0  4 -10 0  4.4 -10 0  4.800000000000001 -10 0  5.199999999999999 -10 0  5.6 -10 0  6 -10 0  6.399999999999999 -10 0  6.800000000000001 -10 0  7.199999999999999 -10 0  7.600000000000001 -10 0  8 -10 0  8.399999999999999 -10 0  8.800000000000001 -10 0  9.199999999999999 -10 0  9.600000000000001 -10 0  10 -10 0  -10 -9.6 0  -9.6 -9.6 0  -9.199999999999999 -9.6 0  -8.800000000000001 -9.6 0  -8.4 -9.6 0  -8 -9.6 0  -7.6 -9.6 0  -7.2 -9.6 0  -6.8 -9.6 0  -6.4 -9.6 0  -6 -9.6 0  -5.6 -9.6 0  -5.2 -9.6 0  -4.8 -9.6 0  -4.4 -9.6 0  -4 -9.6 0  -3.6 -9.6 0  -3.2 -9.6 0  -2.8 -9.6 0  -2.4 -9.6 0  -2 -9.6 0  -1.6 -9.6 0  -1.199999999999999 -9.6 0  -0.8000000000000007 -9.6 0  -0.4000000000000004 -9.6 0  0 -9.6 0  0.4000000000000004 -9.6 0  0.8000000000000007 -9.6 0  1.199999999999999 -9.6 0  1.6 -9.6 0  2 -9.6 0  2.4 -9.6 0  2.800000000000001 -9.6 0  3.199999999999999 -9.6 0  3.6 -9.6 0  4 -9.6 0  4.4 -9.6 0  4.800000000000001 -9.6 0  5.199999999999999 -9.6 0  5.6 -9.6 0  6 -9.6 0  6.399999999999999 -9.6 0  6.800000000000001 -9.6 0  7.199999999999999 -9.6 0  7.600000000000001 -9.6 0  8 -9.6 0  8.399999999999999 -9.6 0  8.800000000000001 -9.6 0  9.199999999999999 -9.6 0  9.600000000000001 -9.6 0  10 -9.6 0  -10 -9.199999999999999 0  -9.6 -9.199999999999999 0  -9.199999999999999 -9.199999999999999 0  -8.800000000000001 -9.199999999999999 0  -8.4 -9.199999999999999 0  -8 -9.199999999999999 0  -7.6 -9.199999999999999 0  -7.2 -9.199999999999999 0  -6.8 -9.199999999999999 0  -6.4 -9.199999999999999 0  -6 -9.199999999999999 0  -5.6 -9.199999999999999 0  -5.2 -9.199999999999999 0  -4.8 -9.199999999999999 0  -4.4 -9.199999999999999 0  -4 -9.199999999999999 0  -3.6 -9.199999999999999 0  -3.2 -9.199999999999999 0  -2.8 -9.199999999999999 0  -2.4 -9.199999999999999 0  -2 -9.199999999999999 0  -1.6 -9.199999999999999 0  -1.199999999999999 -9.199999999999999 0  -0.8000000000000007 -9.199999999999999 0  -0.4000000000000004 -9.199999999999999 0  0 -9.199999999999999 0  0.4000000000000004 -9.199999999999999 0  0.8000000000000007 -9.199999999999999 0  1.199999999999999 -9.199999999999999 0  1.6 -9.199999999999999 0  2 -9.199999999999999 0  2.4 -9.199999999999999 0  2.800000000000001 -9.199999999999999 0  3.199999999999999 -9.199999999999999 0  3.6 -9.199999999999999 0  4 -9.199999999999999 0  4.4 -9.199999999999999 0  4.800000000000001 -9.199999999999999 0  5.199999999999999 -9.199999999999999 0  5.6 -9.199999999999999 0  6 -9.199999999999999 0  6.399999999999999 -9.199999999999999 0  6.800000000000001 -9.199999999999999 0  7.199999999999999 -9.199999999999999 0  7.600000000000001 -9.199999999999999 0  8 -9.199999999999999 0  8.399999999999999 -9.199999999999999 0  8.800000000000001 -9.199999999999999 0  9.199999999999999 -9.199999999999999 0  9.600000000000001 -9.199999999999999 0  10 -9.199999999999999 0  -10 -8.800000000000001 0  -9.6 -8.800000000000001 0  -9.199999999999999 -8.800000000000001 0  -8.800000000000001 -8.800000000000001 0  -8.4 -8.800000000000001 0  -8 -8.800000000000001 0  -7.6 -8.800000000000001 0  -7.2 -8.800000000000001 0  -6.8 -8.800000000000001 0  -6.4 -8.800000000000001 0  -6 -8.800000000000001 0  -5.6 -8.800000000000001 0  -5.2 -8.800000000000001 0  -4.8 -8.800000000000001 0  -4.4 -8.800000000000001 0  -4 -8.800000000000001 0  -3.6 -8.800000000000001 0  -3.2 -8.800000000000001 0  -2.8 -8.800000000000001 0  -2.4 -8.800000000000001 0  -2 -8.800000000000001 0  -1.6 -8.800000000000001 0  -1.199999999999999 -8.800000000000001 0  -0.8000000000000007 -8.800000000000001 0  -0.4000000000000004 -8.800000000000001 0  0 -8.800000000000001 0  0.4000000000000004 -8.800000000000001 0  0.8000000000000007 -8.800000000000001 0  1.199999999999999 -8.800000000000001 0  1.6 -8.800000000000001 0  2 -8.800000000000001 0  2.4 -8.800000000000001 0  2.800000000000001 -8.800000000000001 0  3.199999999999999 -8.800000000000001 0  3.6 -8.800000000000001 0  4 -8.800000000000001 0  4.4 -8.800000000000001 0  4.800000000000001 -8.800000000000001 0  5.199999999999999 -8.800000000000001 0  5.6 -8.800000000000001 0  6 -8.800000000000001 0  6.399999999999999 -8.800000000000001 0  6.800000000000001 -8.800000000000001 0  7.199999999999999 -8.800000000000001 0  7.600000000000001 -8.800000000000001 0  8 -8.800000000000001 0  8.399999999999999 -8.800000000000001 0  8.800000000000001 -8.800000000000001 0  9.199999999999999 -8.800000000000001 0  9.600000000000001 -8.800000000000001 0  10 -8.800000000000001 0  -10 -8.4 0  -9.6 -8.4 0  -9.199999999999999 -8.4 0  -8.800000000000001 -8.4 0  -8.4 -8.4 0  -8 -8.4 0  -7.6 -8.4 0  -7.2 -8.4 0  -6.8 -8.4 0  -6.4 -8.4 0  -6 -8.4 0  -5.6 -8.4 0  -5.2 -8.4 0  -4.8 -8.4 0  -4.4 -8.4 0  -4 -8.4 0  -3.6 -8.4 0  -3.2 -8.4 0  -2.8 -8.4 0  -2.4 -8.4 0  -2 -8.4 0  -1.6 -8.4 0  -1.199999999999999 -8.4 0  -0.8000000000000007 -8.4 0  -0.4000000000000004 -8.4 0  0 -8.4 0  0.4000000000000004 -8.4 0  0.8000000000000007 -8.4 0  1.199999999999999 -8.4 0  1.6 -8.4 0  2 -8.4 0  2.4 -8.4 0  2.800000000000001 -8.4 0  3.199999999999999 -8.4 0  3.6 -8.4 0  4 -8.4 0  4.4 -8.4 0  4.800000000000001 -8.4 0  5.199999999999999 -8.4 0  5.6 -8.4 0  6 -8.4 0  6.399999999999999 -8.4 0  6.800000000000001 -8.4 0  7.199999999999999 -8.4 0  7.600000000000001 -8.4 0  8 -8.4 0  8.399999999999999 -8.4 0  8.800000000000001 -8.4 0  9.199999999999999 -8.4 0  9.600000000000001 -8.4 0  10 -8.4 0  -10 -8 0  -9.6 -8 0  -9.199999999999999 -8 0  -8.800000000000001 -8 0  -8.4 -8 0  -8 -8 0  -7.6 -8 0  -7.2 -8 0  -6.8 -8 0  -6.4 -8 0  -6 -8 0  -5.6 -8 0  -5.2 -8 0  -4.8 -8 0  -4.4 -8 0  -4 -8 0  -3.6 -8 0  -3.2 -8 0  -2.8 -8 0  -2.4 -8 0  -2 -8 0  -1.6 -8 0  -1.199999999999999 -8 0  -0.8000000000000007 -8 0  -0.4000000000000004 -8 0  0 -8 0  0.4000000000000004 -8 0  0.8000000000000007 -8 0  1.199999999999999 -8 0  1.6 -8 0  2 -8 0  2.4 -8 0  2.800000000000001 -8 0  3.199999999999999 -8 0  3.6 -8 0  4 -8 0  4.4 -8 0  4.800000000000001 -8 0  5.199999999999999 -8 0  5.6 -8 0  6 -8 0  6.399999999999999 -8 0  6.800000000000001 -8 0  7.199999999999999 -8 0  7.600000000000001 -8 0  8 -8 0  8.399999999999999 -8 0  8.800000000000001 -8 0  9.199999999999999 -8 0  9.600000000000001 -8 0  10 -8 0  -10 -7.6 0  -9.6 -7.6 0  -9.199999999999999 -7.6 0  -8.800000000000001 -7.6 0  -8.4 -7.6 0  -8 -7.6 0  -7.6 -7.6 0  -7.2 -7.6 0  -6.8 -7.6 0  -6.4 -7.6 0  -6 -7.6 0  -5.6 -7.6 0  -5.2 -7.6 0  -4.8 -7.6 0  -4.4 -7.6 0  -4 -7.6 0  -3.6 -7.6 0  -3.2 -7.6 0  -2.8 -7.6 0  -2.4 -7.6 0  -2 -7.6 0  -1.6 -7.6 0  -1.199999999999999 -7.6 0  -0.8000000000000007 -7.6 0  -0.4000000000000004 -7.6 0  0 -7.6 0  0.4000000000000004 -7.6 0  0.8000000000000007 -7.6 0  1.199999999999999 -7.6 0  1.6 -7.6 0  2 -7.6 0  2.4 -7.6 0  2.800000000000001 -7.6 0  3.199999999999999 -7.6 0  3.6 -7.6 0  4 -7.6 0  4.4 -7.6 0  4.800000000000001 -7.6 0  5.199999999999999 -7.6 0  5.6 -7.6 0  6 -7.6 0  6.399999999999999 -7.6 0  6.800000000000001 -7.6 0  7.199999999999999 -7.6 0  7.600000000000001 -7.6 0  8 -7.6 0  8.399999999999999 -7.6 0  8.800000000000001 -7.6 0  9.199999999999999 -7.6 0  9.600000000000001 -7.6 0  10 -7.6 0  -10 -7.2 0  -9.6 -7.2 0  -9.199999999999999 -7.2 0  -8.800000000000001 -7.2 0  -8.4 -7.2 0  -8 -7.2 0  -7.6 -7.2 0  -7.2 -7.2 0  -6.8 -7.2 0  -6.4 -7.2 0  -6 -7.2 0  -5.6 -7.2 0  -5.2 -7.2 0  -4.8 -7.2 0  -4.4 -7.2 0  -4 -7.2 0  -3.6 -7.2 0  -3.2 -7.2 0  -2.8 -7.2 0  -2.4 -7.2 0  -2 -7.2 0  -1.6 -7.2 0  -1.199999999999999 -7.2 0  -0.8000000000000007 -7.2 0  -0.4000000000000004 -7.2 0  0 -7.2 0  0.4000000000000004 -7.2 0  0.8000000000000007 -7.2 0  1.199999999999999 -7.2 0  1.6 -7.2 0  2 -7.2 0  2.4 -7.2 0  2.800000000000001 -7.2 0  3.199999999999999 -7.2 0  3.6 -7.2 0  4 -7.2 0  4.4 -7.2 0  4.800000000000001 -7.2 0  5.199999999999999 -7.2 0  5.6 -7.2 0  6 -7.2 0  6.399999999999999 -7.2 0  6.800000000000001 -7.2 0  7.199999999999999 -7.2 0  7.600000000000001 -7.2 0  8 -7.2 0  8.399999999999999 -7.2 0  8.800000000000001 -7.2 0  9.199999999999999 -7.2 0  9.600000000000001 -7.2 0  10 -7.2 0  -10 -6.8 0  -9.6 -6.8 0  -9.199999999999999 -6.8 0  -8.800000000000001 -6.8 0  -8.4 -6.8 0  -8 -6.8 0  -7.6 -6.8 0  -7.2 -6.8 0  -6.8 -6.8 0  -6.4 -6.8 0  -6 -6.8 0  -5.6 -6.8 0  -5.2 -6.8 0  -4.8 -6.8 0  -4.4 -6.8 0  -4 -6.8 0  -3.6 -6.8 0  -3.2 -6.8 0  -2.8 -6.8 0  -2.4 -6.8 0  -2 -6.8 0  -1.6 -6.8 0  -1.199999999999999 -6.8 0  -0.8000000000000007 -6.8 0  -0.4000000000000004 -6.8 0  0 -6.8 0  0.4000000000000004 -6.8 0  0.8000000000000007 -6.8 0  1.199999999999999 -6.8 0  1.6 -6.8 0  2 -6.8 0  2.4 -6.8 0  2.800000000000001 -6.8 0  3.199999999999999 -6.8 0  3.6 -6.8 0  4 -6.8 0  4.4 -6.8 0  4.800000000000001 -6.8 0  5.199999999999999 -6.8 0  5.6 -6.8 0  6 -6.8 0  6.399999999999999 -6.8 0  6.800000000000001 -6.8 0  7.199999999999999 -6.8 0  7.600000000000001 -6.8 0  8 -6.8 0  8.399999999999999 -6.8 0  8.800000000000001 -6.8 0  9.199999999999999 -6.8 0  9.600000000000001 -6.8 0  10 -6.8 0  -10 -6.4 0  -9.6 -6.4 0  -9.199999999999999 -6.4 0  -8.800000000000001 -6.4 0  -8.4 -6.4 0  -8 -6.4 0  -7.6 -6.4 0  -7.2 -6.4 0  -6.8 -6.4 0  -6.4 -6.4 0  -6 -6.4 0  -5.6 -6.4 0  -5.2 -6.4 0  -4.8 -6.4 0  -4.4 -6.4 0  -4 -6.4 0  -3.6 -6.4 0  -3.2 -6.4 0  -2.8 -6.4 0  -2.4 -6.4 0  -2 -6.4 0  -1.6 -6.4 0  -1.199999999999999 -6.4 0  -0.8000000000000007 -6.4 0  -0.4000000000000004 -6.4 0  0 -6.4 0
[...]
<PointData  Scalars="f_247"> 
<DataArray  type="Float64"  Name="f_247"  format="ascii">1.4515271748666240e-04  -9.9709757368255584e-04  1.7349463990140614e-03  -2.3561045640159784e-03  2.8265211410789478e-03  -3.1204060140418888e-03  3.2252748795912117e-03  -3.1429043084334877e-03  2.8887850742566022e-03  -2.4903782824271638e-03  1.9843748825705224e-03  -1.4132285824959676e-03  8.2129376283710529e-04  -2.5093191212807861e-04  -2.6105225834641469e-04  6.8632035751786907e-04  -1.0069978765121336e-03  1.2165931204064216e-03  -1.3197769695987406e-03  1.3310738878839759e-03  -1.2726196951253397e-03  1.1712307588963361e-03  -1.0550938918080191e-03  9.5042021685405988e-04  -8.7840640545950655e-04  8.5281310353214641e-04  -8.7840640545940214e-04  9.5042021685368887e-04  -1.0550938918077368e-03  1.1712307588957491e-03  -1.2726196951245781e-03  1.3310738878831811e-03  -1.3197769695980626e-03  1.2165931204058955e-03  -1.0069978765119237e-03  6.8632035751821894e-04  -2.6105225834765323e-04  -2.5093191212569938e-04  8.2129376283378546e-04  -1.4132285824911747e-03  1.9843748825645979e-03  -2.4903782824199543e-03  2.8887850742485639e-03  -3.1429043084250262e-03  3.2252748795824197e-03  -3.1204060140335764e-03  2.8265211410715002e-03  -2.3561045640096935e-03  1.7349463990095015e-03  -9.9709757367978267e-04  1.4515271748635091e-04  -9.9709757375095274e-04  4.9122153098582148e-03  -8.5063199681599672e-03  1.1547950933956126e-02  -1.3851445467950581e-02  1.5288701254779165e-02  -1.5798450944742467e-02  1.5389618529243827e-02  -1.4138505169475327e-02  1.2180197471684218e-02  -9.6950882228208357e-03  6.8918283083594959e-03  -3.9883392998915582e-03  1.1926739394619214e-03  1.3144998178731867e-03  -3.3941950612545319e-03  4.9589159773279056e-03  -5.9771626748073596e-03  6.4723335679464835e-03  -6.5162737431147255e-03  6.2182345539033767e-03  -5.7104479923955421e-03  5.1318371747970052e-03  -4.6115513053480179e-03  4.2540141248733170e-03  -4.1270096105794603e-03  4.2540141248728113e-03  -4.6115513053467862e-03  5.1318371747948455e-03  -5.7104479923926893e-03  6.2182345538998578e-03  -6.5162737431110054e-03  6.4723335679427894e-03  -5.9771626748045528e-03  4.9589159773268041e-03  -3.3941950612564054e-03  1.3144998178789369e-03  1.1926739394510649e-03  -3.9883392998748156e-03  6.8918283083364024e-03  -9.6950882227915484e-03  1.2180197471649340e-02  -1.4138505169436115e-02  1.5389618529201772e-02  -1.5798450944699897e-02  1.5288701254738371e-02  -1.3851445467914014e-02  1.1547950933925679e-02  -8.5063199681374765e-03  4.9122153098453258e-03  -9.9709757374819019e-04  1.7349463998167654e-03  -8.5063199715143291e-03  1.4718391883024502e-02  -1.9968617462347082e-02  2.3932225715305278e-02  -2.6386270548081465e-02  2.7225352826910437e-02  -2.6467191770236050e-02  2.4247518095757883e-02  -2.0804867366207007e-02  1.6456804965057723e-02  -1.1569895713633460e-02  6.5262855579832886e-03  -1.6900419741816815e-03  -2.6236208691665561e-03  6.1734230663554159e-03  -8.8091783708695252e-03  1.0479593344887111e-02  -1.1230187399049900e-02  1.1191776500092074e-02  -1.0560874020792524e-02  9.5741343812112273e-03  -8.4795247969402902e-03  7.5072043141416935e-03  -6.8430898685789485e-03  6.6077972594805398e-03  -6.8430898685781340e-03  7.5072043141397767e-03  -8.4795247969367184e-03  9.5741343812060908e-03  -1.0560874020786011e-02  1.1191776500084669e-02  -1.1230187399042356e-02  1.0479593344880729e-02  -8.8091783708659534e-03  6.1734230663569182e-03  -2.6236208691748863e-03  -1.6900419741645604e-03  6.5262855579560118e-03  -1.1569895713595240e-02  1.6456804965008769e-02  -2.0804867366148224e-02  2.4247518095691464e-02  -2.6467191770164565e-02  2.7225352826837846e-02  -2.6386270548011664e-02  2.3932225715242339e-02  -1.9968617462294752e-02  1.4718391882986072e-02  -8.5063199714919442e-03  1.7349463998121710e-03  -2.3561045666606203e-03  1.1547950946132703e-02  -1.9968617475540379e-02  2.7066004594765557e-02  -3.2394629375458894e-02  3.5650118922476978e-02  -3.6691146584276357e-02  3.5547017758845195e-02  -3.2410359380552277e-02  2.7615754413723399e-02  -2.1606465450760039e-02  1.4892479568813764e-02  -8.0038802381811255e-03  1.4439409161435806e-03  4.3536955266111422e-03  -9.0598320578238190e-03  1.2473422178850993e-02  -1.4532162913830374e-02  1.5309261578792938e-02  -1.4997006534384403e-02  1.3879045249061767e-02  -1.2294352108633413e-02  1.0596650097582568e-02  -9.1134602758393465e-03  8.1089524714477047e-03  -7.7543611112050916e-03  8.1089524714466846e-03  -9.1134602758366386e-03  1.0596650097577775e-02  -1.2294352108625853e-02  1.3879045249051781e-02  -1.4997006534372444e-02  1.5309261578780103e-02  -1.4532162913818656e-02  1.2473422178842753e-02  -9.0598320578221796e-03  4.3536955266188920e-03  1.4439409161241148e-03  -8.0038802381478674e-03  1.4892479568765563e-02  -2.1606465450697106e-02  2.7615754413647050e-02  -3.2410359380465124e-02  3.5547017758750903e-02  -3.6691146584180045e-02  3.5650118922384018e-02  -3.2394629375374698e-02  2.7066004594695395e-02  -1.9968617475488601e-02  1.1547950946102567e-02  -2.3561045666544403e-03  2.8265211469677858e-03  -1.3851445495872999e-02  2.3932225754177548e-02  -3.2394629406743924e-02  3.8696192773099797e-02  -4.2468961459694705e-02  4.3546566873448558e-02  -4.1973380891847802e-02  3.7995115847273615e-02  -3.2031948540562447e-02  2.4636859530614744e-02  -1.6443230971384372e-02  8.1067083959491665e-03  -2.4681401533131205e-04  -6.6062424347519853e-03  1.2054668126369324e-02  -1.5862240081049035e-02  1.7967022009792590e-02  -1.8476770190884968e-02  1.7647835242165816e-02  -1.5849958216545983e-02  1.3520707858854231e-02  -1.1114281879609542e-02  9.0499056832239640e-03  -7.6650591837598703e-03  7.1782478587648444e-03  -7.6650591837586430e-03  9.0499056832210913e-03  -1.1114281879603557e-02  1.3520707858844615e-02  -1.5849958216532466e-02  1.7647835242148857e-02  -1.8476770190865920e-02  1.7967022009773764e-02  -1.5862240081033856e-02  1.2054668126361381e-02  -6.6062424347549820e-03  -2.4681401531428769e-04  8.1067083959155718e-03  -1.6443230971332858e-02  2.4636859530545108e-02  -3.2031948540476071e-02  3.7995115847173758e-02  -4.1973380891738930e-02  4.3546566873336377e-02  -4.2468961459585661e-02  3.8696192773000467e-02  -3.2394629406660685e-02  2.3932225754115983e-02  -1.3851445495837150e-02  2.8265211469605265e-03  -3.1204060246794543e-03  1.5288701305881234e-02  -2.6386270626089177e-02  3.5650119004655499e-02  -4.2468961516844449e-02  4.6432277367274483e-02  -4.7361245713183169e-02  4.5318905526350726e-02  -4.0598815941209086e-02  3.3693491230874631e-02  -2.5245757568461025e-02  1.5987747403249094e-02  -6.6733622129812771e-03  -1.9894093882917570e-03  9.3999847378489192e-03  -1.5114813761547250e-02  1.8880654485670900e-02  -2.0648626498343932e-02  2.0568049530790857e-02  -1.8961035357058981e-02  1.6280656231306815e-02  -1.3057083783283819e-02  9.8372281165153459e-03  -7.1239994369520498e-03  5.3213080927734619e-03  -4.6903155291644141e-03  5.3213080927726388e-03  -7.1239994369493732e-03  9.8372281165093507e-03  -1.3057083783273114e-02  1.6280656231290581e-02  -1.8961035357037248e-02  2.0568049530765260e-02  -2.0648626498317127e-02  1.8880654485646620e-02  -1.5114813761530014e-02  9.3999847378430090e-03  -1.9894093883008968e-03  -6.6733622129536334e-03  1.5987747403201243e-02  -2.5245757568392299e-02  3.3693491230786604e-02  -4.0598815941104989e-02  4.5318905526235506e-02  -4.7361245713063292e-02  4.6432277367156959e-02  -4.2468961516736917e-02  3.5650119004565016e-02  -2.6386270626022001e-02  1.5288701305842220e-02  -3.1204060246714199e-03  3.2252748963679497e-03  -1.5798451025903801e-02  2.7225352956592359e-02  -3.6691146735806139e-02  4.3546567012399305e-02  -4.7361245801367587e-02  4.7957122018344962e-02  -4.5419002192669831e-02  4.0081489129151354e-02  -3.2493706235345872e-02  2.3365313592446198e-02  -1.3499041539575282e-02  3.7161945278024995e-03  5.2178133939911001e-03  -1.2660896105330713e-02  1.8148442733607068e-02  -2.1429237554374123e-02  2.2480006117584349e-02  -2.1497523630621525e-02  1.8869394603071944e-02  -1.5126667087092574e-02  1.0883183109108477e-02  -6.7678224297454802e-03  3.3564496925630551e-03  -1.1103636745336449e-03  3.2737420379988838e-04  -1.1103636745333331e-03  3.3564496925613499e-03  -6.7678224297402882e-03  1.0883183109097864e-02  -1.5126667087074842e-02  1.8869394603046718e-02  -2.1497523630589918e-02  2.2480006117549196e-02  -2.1429237554339738e-02  1.8148442733578247e-02  -1.2660896105312370e-02  5.2178133939880002e-03  3.7161945277864781e-03  -1.3499041539537553e-02  2.3365313592385868e-02  -3.2493706235264055e-02  4.0081489129051559e-02  -4.5419002192557088e-02  4.7957122018225766e-02  -4.7361245801249799e-02  4.3546567012290406e-02  -3.6691146735714282e-02  2.7225352956523875e-02  -1.5798451025863875e-02  3.2252748963599075e-03  -3.1429043324089924e-03  1.5389618645720155e-02  -2.6467191961314564e-02  3.5547017994347729e-02  -4.1973381132624561e-02  4.5318905728611809e-02  -4.5419002312907596e-02  4.2382232103971532e-02  -3.6575784689597927e-02  2.8587606154974909e-02  -1.9168904388621118e-02  9.1625869736754392e-03  5.7551857809992960e-04  -9.2551748124028582e-03  1.6222565436686692e-02  -2.1016823483866246e-02  2.3407047227838620e-02  -2.3406501766131137e-02  2.1262919633480468e-02  -1.7426123955909444e-02  1.2496380213477995e-02  -7.1587279650691515e-03  2.1098749447219364e-03  2.0150744802218548e-03  -4.7088017354078122e-03  5.6443338455659806e-03  -4.7088017354068841e-03  2.0150744802215699e-03  2.1098749447191071e-03  -7.1587279650603313e-03  1.2496380213460691e-02  -1.7426123955882472e-02  2.1262919633444521e-02  -2.3406501766088751e-02  2.3407047227794259e-02  -2.1016823483824981e-02  1.6222565436654224e-02  -9.2551748123843747e-03  5.7551857810003390e-04  9.1625869736534030e-03  -1.9168904388575637e-02  2.8587606154906603e-02  -3.6575784689509616e-02  4.2382232103868857e-02  -4.5419002312796837e-02  4.5318905728500822e-02  -4.1973381132521026e-02  3.5547017994259494e-02  -2.6467191961248547e-02  1.5389618645681535e-02  -3.1429043324011480e-03  2.8887851059643832e-03  -1.4138505323940521e-02  2.4247518353435589e-02  -3.2410359708395654e-02  3.7995116202194874e-02  -4.0598816274618491e-02  4.0081489392125511e-02  -3.6575784838162213e-02  3.0471359205375189e-02  -2.2375631443838088e-02  1.3054736546511092e-02  -3.3603711521246133e-03  -5.8504607688535581e-03  1.3795151225156455e-02  -1.9837079326161682e-02  2.3542341370920334e-02  -2.4716326886357221e-02  2.3416806156796827e-02  -1.9942467267564760e-02  1.4798208351389801e-02  -8.6407259406991958e-03  2.2098284143586087e-03  3.7477366240389674e-03  -8.5544507476398267e-03  1.1670722276137444e-02  -1.2749392128235136e-02  1.1670722276134820e-02  -8.5544507476364162e-03  3.7477366240379496e-03  2.2098284143535897e-03  -8.6407259406846310e-03  1.4798208351363491e-02  -1.9942467267526826e-02  2.3416806156749313e-02  -2.4716326886304228e-02  2.3542341370867293e-02  -1.9837079326114469e-02  1.3795151225121031e-02  -5.8504607688353019e-03  -3.3603711521219778e-03  1.3054736546485089e-02  -2.2375631443788846e-02  3.0471359205305439e-02  -3.6575784838076199e-02  4.0081489392029879e-02  -4.0598816274520506e-02  3.7995116202102198e-02  -3.2410359708315767e-02  2.4247518353375304e-02  -1.4138505323905067e-02  2.8887851059571468e-03  -2.4903783217258440e-03  1.2180197663493200e-02  -2.0804867689850074e-02  2.7615754834144246e-02  -3.2031949011828362e-02  3.3693491700778476e-02  -3.2493706650659857e-02  2.8587606466840491e-02  -2.2375631612768065e-02  1.4464330609225050e-02  -5.6077861677714877e-03  -3.3645783865308512e-03  1.1626889664702831e-02  -1.8434864819602426e-02  2.3195554573536455e-02  -2.5522153632874162e-02  2.5268690821472786e-02  -2.2541353995265193e-02  1.7685456034643474e-02  -1.1249391580748577e-02  3.9291445868076093e-03  3.5012280232008162e-03  -1.0266370227369016e-02  1.5666203574304451e-02  -1.9144882015206765e-02  2.0345445572722193e-02  -1.9144882015201981e-02  1.5666203574297009e-02  -1.0266370227362707e-02  3.5012280232003868e-03  3.9291445867978940e-03  -1.1249391580725764e-02  1.7685456034606584e-02  -2.2541353995215754e-02  2.5268690821414221e-02  -2.5522153632811614e-02  2.3195554573476076e-02  -1.8434864819550603e-02  1.1626889664665260e-02  -3.3645783865121483e-03  -5.6077861677683175e-03  1.4464330609198999e-02  -2.2375631612721061e-02  2.8587606466776515e-02  -3.2493706650584146e-02  3.3693491700698221e-02  -3.2031949011750598e-02  2.7615754834076234e-02  -2.0804867689798050e-02  1.2180197663462507e-02  -2.4903783217195725e-03  1.9843749285565560e-03  -9.6950884475795404e-03  1.6456805347421073e-02  -2.1606465954740701e-02  2.4636860108836173e-02  -2.5245758166669751e-02  2.3365314154675916e-02  -1.9168904862513898e-02  1.3054736888286084e-02  -5.6077863463686413e-03  -2.4562813065371362e-03  1.0359831072414099e-02  -1.7338021124608950e-02  2.2712428441726055e-02  -2.5956463368063645e-02  2.6746284305156971e-02  -2.4992312880380455e-02  2.0848309784522012e-02  -1.4697123590606308e-02  7.1144627606437348e-03  1.1858500376226864e-03  -9.4199046409976887e-03  1.6808498911526859e-02  -2.2651539739407828e-02  2.6394922073089650e-02  -2.7683478005697454e-02  2.6394922073082330e-02  -2.2651539739395661e-02  1.6808498911514348e-02  -9.4199046409899154e-03  1.1858500376252142e-03  7.1144627606273417e-03  -1.4697123590574132e-02  2.0848309784474363e-02  -2.4992312880319986e-02  2.6746284305088550e-02  -2.5956463367993073e-02  2.2712428441659851e-02  -1.7338021124553356e-02  1.0359831072374181e-02  -2.4562813065168265e-03  -5.6077863463674833e-03  1.3054736888264451e-02  -1.9168904862474488e-02  2.3365314154623635e-02  -2.5245758166610087e-02  2.4636860108776016e-02  -2.1606465954686523e-02  1.6456805347378953e-02  -9.6950884475543488e-03  1.9843749285513132e-03  -1.4132286334901966e-03  6.8918285578597237e-03  -1.1569896140728553e-02  1.4892480137859819e-02  -1.6443231635240647e-02  1.5987748107542474e-02  -1.3499042227595025e-02  9.1625875914375168e-03  -3.3603716531343392e-03  -3.3645780372605644e-03  1.0359830895459100e-02  -1.6926414370521906e-02  2.2386857330453955e-02  -2.6151851854385719e-02  2.7779078443399739e-02  -2.7018470096890533e-02  2.3839473294388052e-02  -1.8437576232594646e-02  1.1219352892215160e-02  -2.7673261889503351e-03  -6.2121123508553809e-03  1.4952860800397807e-02  -2.2699311560546075e-02  2.8775979947042393e-02  -3.2649974305557258e-02  3.3980393918970987e-02  -3.2649974305547308e-02  2.8775979947025285e-02  -2.2699311560526320e-02  1.4952860800381530e-02  -6.2121123508481896e-03  -2.7673261889435501e-03  1.1219352892191314e-02  -1.8437576232553141e-02  2.3839473294330532e-02  -2.7018470096820780e-02  2.7779078443323224e-02  -2.6151851854309002e-02  2.2386857330383276e-02  -1.6926414370463019e-02  1.0359830895416689e-02  -3.3645780372373447e-03  -3.3603716531380246e-03  9.1625875914234291e-03  -1.3499042227566741e-02  1.5987748107504845e-02  -1.6443231635199101e-02  1.4892480137820551e-02  -1.1569896140696957e-02  6.8918285578404501e-03  -1.4132286334863234e-03  8.2129381645174200e-04  -3.9883395624348622e-03  6.5262860096323306e-03  -8.0038808450590346e-03  8.1067091130471464e-03  -6.6733629880193560e-03  3.7161953056723423e-03  5.7551785071569721e-04  -5.8504601391048908e-03  1.1626889169833484e-02  -1.7338020789187773e-02  2.2386857164812445e-02  -2.6205181490538548e-02  2.8310998233825428e-02  -2.8358805099689115e-02  2.6177732440754314e-02  -2.1793716694377355e-02  1.5433379204502617e-02  -7.5090170214141879e-03  -1.4140878601359408e-03  1.0665142161618499e-02  -1.9525776925704941e-02  2.7293108358306083e-02  -3.3342075880441482e-02  3.7181252224776015e-02  -3.8496914262527764e-02  3.7181252224763296e-02  -3.3342075880418785e-02  2.7293108358278331e-02  -1.9525776925678282e-02  1.0665142161599438e-02  -1.4140878601302410e-03  -7.5090170214027812e-03  1.5433379204471779e-02  -2.1793716694327912e-02  2.6177732440688797e-02  -2.8358805099612455e-02  2.8310998233743407e-02  -2.6205181490457717e-02  2.2386857164738937e-02  -1.7338020789126891e-02  1.1626889169788613e-02  -5.8504601390778812e-03  5.7551785070615504e-04  3.7161953056670462e-03  -6.6733629880026879e-03  8.1067091130238959e-03  -8.0038808450343928e-03  6.5262860096112346e-03  -3.9883395624214484e-03  8.2129381644904722e-04  -2.5093196540828736e-04  1.1926742005568822e-03  -1.6900424252318436e-03  1.4439415265438003e-03  -2.4681474422748643e-04  -1.9894085886971468e-03  5.2178125746213380e-03  -9.2551740233158940e-03  1.3795150511733256e-02  -1.8434864219245346e-02  2.2712427981347164e-02  -2.6151851548890694e-02  2.8310998085699205e-02  -2.8827909261597166e-02  2.7460917698100804e-02  -2.4118510313332002e-02  1.8875844790308648e-02  -1.1976065428741944e-02  3.8159959185184375e-03  5.0827313178571504e-03  -1.4114658273118542e-02  2.2639978883258114e-02  -3.0038061963632019e-02  3.5760156312215616e-02  -3.9376457726718023e-02  4.0613215033506712e-02  -3.9376457726702258e-02  3.5760156312187111e-02  -3.0038061963595344e-02  2.2639978883219919e-02  -1.4114658273085759e-02  5.0827313178358697e-03  3.8159959185228771e-03  -1.1976065428726463e-02  1.8875844790272420e-02  -2.4118510313276498e-02  2.7460917698029781e-02  -2.8827909261515988e-02  2.8310998085614221e-02  -2.6151851548808461e-02  2.2712427981272976e-02  -1.8434864219183732e-02  1.3795150511687134e-02  -9.2551740232860429e-03  5.2178125746064974e-03  -1.9894085886949455e-03  -2.4681474422076741e-04  1.4439415265325626e-03  -1.6900424252205971e-03  1.1926742005493435e-03  -2.5093196540665102e-04  -2.6105220871444916e-04  1.3144995744913623e-03  -2.6236204470610836e-03  4.3536949516124060e-03  -6.6062417415253876e-03  9.3999839672804300e-03  -1.2660895301493544e-02  1.6222564643649219e-02  -1.9837078584906361e-02  2.3195553919246256e-02  -2.5956462827993527e-02  2.7779078035494998e-02  -2.8358804832039630e-02  2.7460917569242935e-02  -2.4949306347451888e-02  2.0807258934557277e-02  -1.5148015304216864e-02  8.2137709976923060e-03  -3.6288217716052385e-04  -7.9538624756119343e-03  1.6225996010247004e-02  -2.3922374921893128e-02  3.0533031978823559e-02  -3.5610180077540299e-02  3.8804707427102937e-02  -3.9894886426668462e-02  3.8804707427084334e-02  -3.5610180077505584e-02  3.0533031978777728e-02  -2.3922374921842644e-02  1.6225996010198734e-02  -7.9538624755730817e-03  -3.6288217718394777e-04  8.2137709976957823e-03  -1.5148015304198235e-02  2.0807258934516883e-02  -2.4949306347392366e-02  2.7460917569169064e-02  -2.8358804831957244e-02  2.7779078035410413e-02  -2.5956462827912769e-02  2.3195553919174116e-02  -1.9837078584846683e-02  1.6222564643604002e-02  -1.2660895301462720e-02  9.3999839672627827e-03  -6.6062417415182310e-03  4.3536949516121779e-03  -2.6236204470639528e-03  1.3144995744941463e-03  -2.6105220871502590e-04  6.8632031495211487e-04  -3.3941948523690535e-03  6.1734227025317988e-03  -9.0598315587114425e-03  1.2054667518528784e-02  -1.5114813076642929e-02  1.8148442006294490e-02  -2.1016822749545416e-02  2.3542340663532252e-02  -2.5522152982912119e-02  2.6746283738038265e-02  -2.7018469631799841e-02  2.6177732090027373e-02  -2.4118510082392033e-02  2.0807258822375451e-02  -1.6293696676828898e-02  1.0715342092614929e-02  -4.2945818611557522e-03  -2.6718044037981792e-03  9.8300355552800710e-03  -1.6792351975684985e-02  2.3163840305778921e-02  -2.8570846088482791e-02  3.2688576873494218e-02  -3.5265533287135324e-02  3.6142657319646422e-02  -3.5265533287113876e-02  3.2688576873453716e-02  -2.8570846088427804e-02  2.3163840305716017e-02  -1.6792351975621077e-02  9.8300355552225285e-03  -2.6718044037540825e-03  -4.2945818611808666e-03  1.0715342092617514e-02  -1.6293696676808023e-02  2.0807258822332739e-02  -2.4118510082331283e-02  2.6177732089953946e-02  -2.7018469631720034e-02  2.6746283737957670e-02  -2.5522152982836142e-02  2.3542340663465260e-02  -2.1016822749490398e-02  1.8148442006252680e-02  -1.5114813076614157e-02  1.2054667518511003e-02  -9.0598315587022