<?xml version="1.0"?>
<VTKFile type="UnstructuredGrid"  version="0.1"  >
<UnstructuredGrid>
<Piece  NumberOfPoints="2601" NumberOfCells="5000">
<Points>
<DataArray  type="Float64"  NumberOfComponents="3"  format="ascii">-10 -10 0  -9.6 -10 0  -9.199999999999999 -10 0  -8.800000000000001 -10 0  -8.4 -10 0  -8 -10 0  -7.6 -10 0  -7.2 -10 0  -6.8 -10 0  -6.4 -10 0  -6 -10 0  -5.6 -10 0  -5.2 -10 0  -4.8 -10 0  -4.4 -10 0  -4 -10 0  -3.6 -10 0  -3.2 -10 0  -2.8 -10 0  -2.4 -10 0  -2 -10 0  -1.6 -10 0  -1.199999999999999 -10 0  -0.8000000000000007 -10 0  -0.4000000000000004 -10 0  0 -10 0  0.4000000000000004 -10 0  0.8000000000000007 -10 0  1.199999999999999 -10 0  1.6 -10 0  2 -10 0  2.4 -10 0  2.800000000000001 -10 0  3.199999999999999 -10 0  3.6 -10 0  4 -10 0  4.4 -10 0  4.800000000000001 -10 0  5.199999999999999 -10 0  5.6 -10 0  6 -10 0  6.399999999999999 -10 0  6.800000000000001 -10 0  7.199999999999999 -10 0  7.600000000000001 -10 0  8 -10 0  8.399999999999999 -10 0  8.800000000000001 -10 0  9.199999999999999 -10 0  9.600000000000001 -10 0  10 -10 0  -10 -9.6 0  -9.6 -9.6 0  -9.199999999999999 -9.6 0  -8.800000000000001 -9.6 0  -8.4 -9.6 0  -8 -9.6 0  -7.6 -9.6 0  -7.2 -9.6 0  -6.8 -9.6 0  -6.4 -9.6 0  -6 -9.6 0  -5.6 -9.6 0  -5.2 -9.6 0  -4.8 -9.6 0  -4.4 -9.6 0  -4 -9.6 0  -3.6 -9.6 0  -3.2 -9.6 0  -2.8 -9.6 0  -2.4 -9.6 0  -2 -9.6 0  -1.6 -9.6 0  -1.199999999999999 -9.6 0  -0.8000000000000007 -9.6 0  -0.4000000000000004 -9.6 0  0 -9.6 0  0.4000000000000004 -9.6 0  0.8000000000000007 -9.6 0  1.199999999999999 -9.6 0  1.6 -9.6 0  2 -9.6 0  2.4 -9.6 0  2.800000000000001 -9.6 0  3.199999999999999 -9.6 0  3.6 -9.6 0  4 -9.6 0  4.4 -9.6 0  4.800000000000001 -9.6 0  5.199999999999999 -9.6 0  5.6 -9.6 0  6 -9.6 0  6.399999999999999 -9.6 0  6.800000000000001 -9.6 0  7.199999999999999 -9.6 0  7.600000000000001 -9.6 0  8 -9.6 0  8.399999999999999 -9.6 0  8.800000000000001 -9.6 0  9.199999999999999 -9.6 0  9.600000000000001 -9.6 0  10 -9.6 0  -10 -9.199999999999999 0  -9.6 -9.199999999999999 0  -9.199999999999999 -9.199999999999999 0  -8.800000000000001 -9.199999999999999 0  -8.4 -9.199999999999999 0  -8 -9.199999999999999 0  -7.6 -9.199999999999999 0  -7.2 -9.199999999999999 0  -6.8 -9.199999999999999 0  -6.4 -9.199999999999999 0  -6 -9.199999999999999 0  -5.6 -9.199999999999999 0  -5.2 -9.199999999999999 0  -4.8 -9.199999999999999 0  -4.4 -9.199999999999999 0  -4 -9.199999999999999 0  -3.6 -9.199999999999999 0  -3.2 -9.199999999999999 0  -2.8 -9.199999999999999 0  -2.4 -9.199999999999999 0  -2 -9.199999999999999 0  -1.6 -9.199999999999999 0  -1.199999999999999 -9.199999999999999 0  -0.8000000000000007 -9.199999999999999 0  -0.4000000000000004 -9.199999999999999 0  0 -9.199999999999999 0  0.4000000000000004 -9.199999999999999 0  0.8000000000000007 -9.199999999999999 0  1.199999999999999 -9.199999999999999 0  1.6 -9.199999999999999 0  2 -9.199999999999999 0  2.4 -9.199999999999999 0  2.800000000000001 -9.199999999999999 0  3.199999999999999 -9.199999999999999 0  3.6 -9.199999999999999 0  4 -9.199999999999999 0  4.4 -9.199999999999999 0  4.800000000000001 -9.199999999999999 0  5.199999999999999 -9.199999999999999 0  5.6 -9.199999999999999 0  6 -9.199999999999999 0  6.399999999999999 -9.199999999999999 0  6.800000000000001 -9.199999999999999 0  7.199999999999999 -9.199999999999999 0  7.600000000000001 -9.199999999999999 0  8 -9.199999999999999 0  8.399999999999999 -9.199999999999999 0  8.800000000000001 -9.199999999999999 0  9.199999999999999 -9.199999999999999 0  9.600000000000001 -9.199999999999999 0  10 -9.199999999999999 0  -10 -8.800000000000001 0  -9.6 -8.800000000000001 0  -9.199999999999999 -8.800000000000001 0  -8.800000000000001 -8.800000000000001 0  -8.4 -8.800000000000001 0  -8 -8.800000000000001 0  -7.6 -8.800000000000001 0  -7.2 -8.800000000000001 0  -6.8 -8.800000000000001 0  -6.4 -8.800000000000001 0  -6 -8.800000000000001 0  -5.6 -8.800000000000001 0  -5.2 -8.800000000000001 0  -4.8 -8.800000000000001 0  -4.4 -8.800000000000001 0  -4 -8.800000000000001 0  -3.6 -8.800000000000001 0  -3.2 -8.800000000000001 0  -2.8 -8.800000000000001 0  -2.4 -8.800000000000001 0  -2 -8.800000000000001 0  -1.6 -8.800000000000001 0  -1.199999999999999 -8.800000000000001 0  -0.8000000000000007 -8.800000000000001 0  -0.4000000000000004 -8.800000000000001 0  0 -8.800000000000001 0  0.4000000000000004 -8.800000000000001 0  0.8000000000000007 -8.800000000000001 0  1.199999999999999 -8.800000000000001 0  1.6 -8.800000000000001 0  2 -8.800000000000001 0  2.4 -8.800000000000001 0  2.800000000000001 -8.800000000000001 0  3.199999999999999 -8.800000000000001 0  3.6 -8.800000000000001 0  4 -8.800000000000001 0  4.4 -8.800000000000001 0  4.800000000000001 -8.800000000000001 0  5.199999999999999 -8.800000000000001 0  5.6 -8.800000000000001 0  6 -8.800000000000001 0  6.399999999999999 -8.800000000000001 0  6.800000000000001 -8.800000000000001 0  7.199999999999999 -8.800000000000001 0  7.600000000000001 -8.800000000000001 0  8 -8.800000000000001 0  8.399999999999999 -8.800000000000001 0  8.800000000000001 -8.800000000000001 0  9.199999999999999 -8.800000000000001 0  9.600000000000001 -8.800000000000001 0  10 -8.800000000000001 0  -10 -8.4 0  -9.6 -8.4 0  -9.199999999999999 -8.4 0  -8.800000000000001 -8.4 0  -8.4 -8.4 0  -8 -8.4 0  -7.6 -8.4 0  -7.2 -8.4 0  -6.8 -8.4 0  -6.4 -8.4 0  -6 -8.4 0  -5.6 -8.4 0  -5.2 -8.4 0  -4.8 -8.4 0  -4.4 -8.4 0  -4 -8.4 0  -3.6 -8.4 0  -3.2 -8.4 0  -2.8 -8.4 0  -2.4 -8.4 0  -2 -8.4 0  -1.6 -8.4 0  -1.199999999999999 -8.4 0  -0.8000000000000007 -8.4 0  -0.4000000000000004 -8.4 0  0 -8.4 0  0.4000000000000004 -8.4 0  0.8000000000000007 -8.4 0  1.199999999999999 -8.4 0  1.6 -8.4 0  2 -8.4 0  2.4 -8.4 0  2.800000000000001 -8.4 0  3.199999999999999 -8.4 0  3.6 -8.4 0  4 -8.4 0  4.4 -8.4 0  4.800000000000001 -8.4 0  5.199999999999999 -8.4 0  5.6 -8.4 0  6 -8.4 0  6.399999999999999 -8.4 0  6.800000000000001 -8.4 0  7.199999999999999 -8.4 0  7.600000000000001 -8.4 0  8 -8.4 0  8.399999999999999 -8.4 0  8.800000000000001 -8.4 0  9.199999999999999 -8.4 0  9.600000000000001 -8.4 0  10 -8.4 0  -10 -8 0  -9.6 -8 0  -9.199999999999999 -8 0  -8.800000000000001 -8 0  -8.4 -8 0  -8 -8 0  -7.6 -8 0  -7.2 -8 0  -6.8 -8 0  -6.4 -8 0  -6 -8 0  -5.6 -8 0  -5.2 -8 0  -4.8 -8 0  -4.4 -8 0  -4 -8 0  -3.6 -8 0  -3.2 -8 0  -2.8 -8 0  -2.4 -8 0  -2 -8 0  -1.6 -8 0  -1.199999999999999 -8 0  -0.8000000000000007 -8 0  -0.4000000000000004 -8 0  0 -8 0  0.4000000000000004 -8 0  0.8000000000000007 -8 0  1.199999999999999 -8 0  1.6 -8 0  2 -8 0  2.4 -8 0  2.800000000000001 -8 0  3.199999999999999 -8 0  3.6 -8 0  4 -8 0  4.4 -8 0  4.800000000000001 -8 0  5.199999999999999 -8 0  5.6 -8 0  6 -8 0  6.399999999999999 -8 0  6.800000000000001 -8 0  7.199999999999999 -8 0  7.600000000000001 -8 0  8 -8 0  8.399999999999999 -8 0  8.800000000000001 -8 0  9.199999999999999 -8 0  9.600000000000001 -8 0  10 -8 0  -10 -7.6 0  -9.6 -7.6 0  -9.199999999999999 -7.6 0  -8.800000000000001 -7.6 0  -8.4 -7.6 0  -8 -7.6 0  -7.6 -7.6 0  -7.2 -7.6 0  -6.8 -7.6 0  -6.4 -7.6 0  -6 -7.6 0  -5.6 -7.6 0  -5.2 -7.6 0  -4.8 -7.6 0  -4.4 -7.6 0  -4 -7.6 0  -3.6 -7.6 0  -3.2 -7.6 0  -2.8 -7.6 0  -2.4 -7.6 0  -2 -7.6 0  -1.6 -7.6 0  -1.199999999999999 -7.6 0  -0.8000000000000007 -7.6 0  -0.4000000000000004 -7.6 0  0 -7.6 0  0.4000000000000004 -7.6 0  0.8000000000000007 -7.6 0  1.199999999999999 -7.6 0  1.6 -7.6 0  2 -7.6 0  2.4 -7.6 0  2.800000000000001 -7.6 0  3.199999999999999 -7.6 0  3.6 -7.6 0  4 -7.6 0  4.4 -7.6 0  4.800000000000001 -7.6 0  5.199999999999999 -7.6 0  5.6 -7.6 0  6 -7.6 0  6.399999999999999 -7.6 0  6.800000000000001 -7.6 0  7.199999999999999 -7.6 0  7.600000000000001 -7.6 0  8 -7.6 0  8.399999999999999 -7.6 0  8.800000000000001 -7.6 0  9.199999999999999 -7.6 0  9.600000000000001 -7.6 0  10 -7.6 0  -10 -7.2 0  -9.6 -7.2 0  -9.199999999999999 -7.2 0  -8.800000000000001 -7.2 0  -8.4 -7.2 0  -8 -7.2 0  -7.6 -7.2 0  -7.2 -7.2 0  -6.8 -7.2 0  -6.4 -7.2 0  -6 -7.2 0  -5.6 -7.2 0  -5.2 -7.2 0  -4.8 -7.2 0  -4.4 -7.2 0  -4 -7.2 0  -3.6 -7.2 0  -3.2 -7.2 0  -2.8 -7.2 0  -2.4 -7.2 0  -2 -7.2 0  -1.6 -7.2 0  -1.199999999999999 -7.2 0  -0.8000000000000007 -7.2 0  -0.4000000000000004 -7.2 0  0 -7.2 0  0.4000000000000004 -7.2 0  0.8000000000000007 -7.2 0  1.199999999999999 -7.2 0  1.6 -7.2 0  2 -7.2 0  2.4 -7.2 0  2.800000000000001 -7.2 0  3.199999999999999 -7.2 0  3.6 -7.2 0  4 -7.2 0  4.4 -7.2 0  4.800000000000001 -7.2 0  5.199999999999999 -7.2 0  5.6 -7.2 0  6 -7.2 0  6.399999999999999 -7.2 0  6.800000000000001 -7.2 0  7.199999999999999 -7.2 0  7.600000000000001 -7.2 0  8 -7.2 0  8.399999999999999 -7.2 0  8.800000000000001 -7.2 0  9.199999999999999 -7.2 0  9.600000000000001 -7.2 0  10 -7.2 0  -10 -6.8 0  -9.6 -6.8 0  -9.199999999999999 -6.8 0  -8.800000000000001 -6.8 0  -8.4 -6.8 0  -8 -6.8 0  -7.6 -6.8 0  -7.2 -6.8 0  -6.8 -6.8 0  -6.4 -6.8 0  -6 -6.8 0  -5.6 -6.8 0  -5.2 -6.8 0  -4.8 -6.8 0  -4.4 -6.8 0  -4 -6.8 0  -3.6 -6.8 0  -3.2 -6.8 0  -2.8 -6.8 0  -2.4 -6.8 0  -2 -6.8 0  -1.6 -6.8 0  -1.199999999999999 -6.8 0  -0.8000000000000007 -6.8 0  -0.4000000000000004 -6.8 0  0 -6.8 0  0.4000000000000004 -6.8 0  0.8000000000000007 -6.8 0  1.199999999999999 -6.8 0  1.6 -6.8 0  2 -6.8 0  2.4 -6.8 0  2.800000000000001 -6.8 0  3.199999999999999 -6.8 0  3.6 -6.8 0  4 -6.8 0  4.4 -6.8 0  4.800000000000001 -6.8 0  5.199999999999999 -6.8 0  5.6 -6.8 0  6 -6.8 0  6.399999999999999 -6.8 0  6.800000000000001 -6.8 0  7.199999999999999 -6.8 0  7.600000000000001 -6.8 0  8 -6.8 0  8.399999999999999 -6.8 0  8.800000000000001 -6.8 0  9.199999999999999 -6.8 0  9.600000000000001 -6.8 0  10 -6.8 0  -10 -6.4 0  -9.6 -6.4 0  -9.199999999999999 -6.4 0  -8.800000000000001 -6.4 0  -8.4 -6.4 0  -8 -6.4 0  -7.6 -6.4 0  -7.2 -6.4 0  -6.8 -6.4 0  -6.4 -6.4 0  -6 -6.4 0  -5.6 -6.4 0  -5.2 -6.4 0  -4.8 -6.4 0  -4.4 -6.4 0  -4 -6.4 0  -3.6 -6.4 0  -3.2 -6.4 0  -2.8 -6.4 0  -2.4 -6.4 0  -2 -6.4 0  -1.6 -6.4 0  -1.199999999999999 -6.4 0  -0.8000000000000007 -6.4 0  -0.4000000000000004 -6.4 0  0 -6.4 0
[...]
<PointData  Scalars="f_60"> 
<DataArray  type="Float64"  Name="f_60"  format="ascii">1.3907276947082754e-05  -9.7089735752068081e-05  1.7646131694858697e-04  -2.5691333157537084e-04  3.3937295531901921e-04  -4.2431933949769866e-04  5.1205849438348394e-04  -6.0272705636744950e-04  6.9627983620819368e-04  -7.9247862329768560e-04  8.9088909928193691e-04  -9.9088625700020005e-04  1.0916627359064434e-03  -1.1922488346108309e-03  1.2915351962231390e-03  -1.3883021593127291e-03  1.4812544799548135e-03  -1.5690571920843810e-03  1.6503750899635112e-03  -1.7239127121828582e-03  1.7884529485130108e-03  -1.8428943575547177e-03  1.8862847947685247e-03  -1.9178518157557136e-03  1.9370247401879642e-03  -1.9434551655886836e-03  1.9370248428830937e-03  -1.9178517477762601e-03  1.8862850370164254e-03  -1.8428944202273625e-03  1.7884531307872837e-03  -1.7239129614111726e-03  1.6503754077666741e-03  -1.5690575070442282e-03  1.4812546699240130e-03  -1.3883024036707267e-03  1.2915352066417370e-03  -1.1922490243716187e-03  1.0916630700153189e-03  -9.9088649733958928e-04  8.9088927094083733e-04  -7.9247859975949944e-04  6.9628002902656053e-04  -6.0272703692583257e-04  5.1205810603164442e-04  -4.2431905477868944e-04  3.3937256451240910e-04  -2.5691315064332084e-04  1.7646109492045845e-04  -9.7089523328521148e-05  1.3907184913985239e-05  -9.6538675880008214e-05  4.8360611846337228e-04  -8.7495500349137544e-04  1.2736458085942164e-03  -1.6825218316117725e-03  2.1038222579843721e-03  -2.5390623355599968e-03  2.9889288108384785e-03  -3.4532004019090790e-03  3.9306975695020605e-03  -4.4192655752791059e-03  4.9157942628274831e-03  -5.4162718172334574e-03  5.9158740587655616e-03  -6.4090825343560663e-03  6.8898306619445855e-03  -7.3516719683222173e-03  7.7879642150183379e-03  -8.1920631134682308e-03  8.5575215118220624e-03  -8.8782818400473581e-03  9.1488626652993545e-03  -9.3645267016299744e-03  9.5214276132765552e-03  -9.6167282881803665e-03  9.6486903829311084e-03  -9.6167285493927498e-03  9.5214279648194906e-03  -9.3645273442148399e-03  9.1488632074009403e-03  -8.8782822748073344e-03  8.5575225001779855e-03  -8.1920645069474933e-03  7.7879654993515367e-03  -7.3516731876470294e-03  6.8898318616547848e-03  -6.4090833107845252e-03  5.9158751103443492e-03  -5.4162729795523921e-03  4.9157952588371927e-03  -4.4192661185700555e-03  3.9306978179723812e-03  -3.4532005434179261e-03  2.9889280236017699e-03  -2.5390612291613102e-03  2.1038209809756628e-03  -1.6825203667312331e-03  1.2736450237427830e-03  -8.7495439114363641e-04  4.8360567751377942e-04  -9.6538553354101801e-05  1.6989240540620572e-04  -8.4717444902087529e-04  1.5323341742789368e-03  -2.2310318461137499e-03  2.9483019279934724e-03  -3.6881796544335674e-03  4.4534335943814465e-03  -5.2453547877147734e-03  6.0636047162149626e-03  -6.9061238552149502e-03  7.7691015449165325e-03  -8.6470075111382810e-03  9.5326926030874296e-03  -1.0417545302384040e-02  1.1291704993899629e-02  -1.2144324257426699e-02  1.2963870469973458e-02  -1.3738455780288384e-02  1.4456185705575520e-02  -1.5105514957298234e-02  1.5675595793765009e-02  -1.6156609365410881e-02  1.6540069152857315e-02  -1.6819084414108988e-02  1.6988572421956685e-02  -1.7045418191575124e-02  1.6988572848278986e-02  -1.6819085380395032e-02  1.6540070234754168e-02  -1.6156610259289782e-02  1.5675596682932239e-02  -1.5105516850029695e-02  1.4456187897565746e-02  -1.3738458082346482e-02  1.2963872353519302e-02  -1.2144326047270830e-02  1.1291706408573274e-02  -1.0417546789240539e-02  9.5326946605742233e-03  -8.6470094404595358e-03  7.7691026831296847e-03  -6.9061247472602021e-03  6.0636046227416640e-03  -5.2453540145369106e-03  4.4534324623162619e-03  -3.6881781256797607e-03  2.9482999287853869e-03  -2.2310305490433487e-03  1.5323328944713377e-03  -8.4717345705486835e-04  1.6989214287905000e-04  -2.3470537309138367e-04  1.1701643080685806e-03  -2.1170283510781106e-03  3.0837300017757222e-03  -4.0776714405204272e-03  5.1048004404737135e-03  -6.1692390938397450e-03  7.2729850544459018e-03  -8.4156890703090941e-03  9.5945220643511211e-03  -1.0804127869756368e-02  1.2036674636593137e-02  -1.3281992205663817e-02  1.4527800801683180e-02  -1.5760017305714209e-02  1.6963130398343795e-02  -1.8120635750064121e-02  1.9215509979146287e-02  -2.0230712727361058e-02  2.1149697200114337e-02  -2.1956911931557660e-02  2.2638277821770345e-02  -2.3181624014626617e-02  2.3577066210246841e-02  -2.3817313589578653e-02  2.3897897729628800e-02  -2.3817313984483737e-02  2.3577067156305660e-02  -2.3181624926554290e-02  2.2638278490853078e-02  -2.1956913198658196e-02  2.1149699558189600e-02  -2.0230715721364673e-02  1.9215513189305190e-02  -1.8120638064437790e-02  1.6963132582693996e-02  -1.5760019153738529e-02  1.4527802823217155e-02  -1.3281994297272648e-02  1.2036676673188414e-02  -1.0804128909282010e-02  9.5945223500137292e-03  -8.4156887501355589e-03  7.2729836664753500e-03  -6.1692372319568185e-03  5.1047982044608890e-03  -4.0776694445549414e-03  3.0837281709976197e-03  -2.1170266817716900e-03  1.1701632412364495e-03  -2.3470502592721942e-04  2.8812296675238515e-04  -1.4365821041106865e-03  2.6001689075870978e-03  -3.7901587600973311e-03  5.0164593940523810e-03  -6.2870697865664779e-03  7.6076095202536591e-03  -8.9809253096283705e-03  1.0406806601688310e-02  -1.1881806501610007e-02  1.3399184056270910e-02  -1.4948965592561085e-02  1.6518127105490308e-02  -1.8090887908449510e-02  1.9649109225098882e-02  -2.1172781872223677e-02  2.2640591162843039e-02  -2.4030533874411106e-02  2.5320570256295832e-02  -2.6489289009539087e-02  2.7516558171719576e-02  -2.8384146941298257e-02  2.9076291812527136e-02  -2.9580187899590868e-02  2.9886389238497235e-02  -2.9989106595147648e-02  2.9886389902728801e-02  -2.9580188934131127e-02  2.9076292870919358e-02  -2.8384147970394506e-02  2.7516559696045897e-02  -2.6489291549442177e-02  2.5320573534464125e-02  -2.4030537016879818e-02  2.2640593663642003e-02  -2.1172784396270631e-02  1.9649111439492106e-02  -1.8090889972325334e-02  1.6518129112605921e-02  -1.4948967425363063e-02  1.3399184769396997e-02  -1.1881806296699996e-02  1.0406805553099096e-02  -8.9809233571611427e-03  7.6076067264544533e-03  -6.2870667805946315e-03  5.0164560518122054e-03  -3.7901563190132011e-03  2.6001668674132191e-03  -1.4365808761586300e-03  2.8812266148542967e-04  -3.2736314308152135e-04  1.6324211264518885e-03  -2.9565423106544201e-03  4.3139806780470380e-03  -5.7173049552674384e-03  7.1767346966315204e-03  -8.6995556848519055e-03  1.0289644310785807e-02  -1.1947111438855757e-02  1.3668085538346978e-02  -1.5444638039951226e-02  1.7264858480050861e-02  -1.9113076766555090e-02  2.0970221992123339e-02  -2.2814310490355864e-02  2.4621045231697322e-02  -2.6364505701502304e-02  2.8017905685713010e-02  -2.9554393797722962e-02  3.0947866179791231e-02  -3.2173768172957834e-02  3.3209855563950806e-02  -3.4036888215934834e-02  3.4639233726744351e-02  -3.5005359130922870e-02  3.5128195191246936e-02  -3.5005359938217386e-02  3.4639234902604586e-02  -3.4036889225897808e-02  3.3209856664730558e-02  -3.2173769535784824e-02  3.0947868271904176e-02  -2.9554396513886548e-02  2.8017908435640025e-02  -2.6364507985371804e-02  2.4621047362797487e-02  -2.2814312692417849e-02  2.0970223716775545e-02  -1.9113078482238147e-02  1.7264860081965566e-02  -1.5444638463050650e-02  1.3668084779848193e-02  -1.1947109396050232e-02  1.0289641356937055e-02  -8.6995522055336397e-03  7.1767304323722622e-03  -5.7173010434182587e-03  4.3139771370112609e-03  -2.9565396003026711e-03  1.6324196411204256e-03  -3.2736281202774955e-04  3.5012016375526568e-04  -1.7461863898416824e-03  3.1654781192681173e-03  -4.6253997763463549e-03  6.1413622732363702e-03  -7.7259918935250263e-03  9.3884387044001778e-03  -1.1133812605730447e-02  1.2962760866237832e-02  -1.4871209264770105e-02  1.6850273350557797e-02  -1.8886344619179284e-02  2.0961350812140917e-02  -2.3053179776544044e-02  2.5136252602999593e-02  -2.7182231192437532e-02  2.9160832548924046e-02  -3.1040722241092809e-02  3.2790458170212498e-02  -3.4379451479595001e-02  3.5778912075760338e-02  -3.6962746141662527e-02  3.7908376816275118e-02  -3.8597454918602336e-02  3.9016441193052018e-02  -3.9157035491204861e-02  3.9016441889556483e-02  -3.8597455765693220e-02  3.7908377706822080e-02  -3.6962747073168968e-02  3.5778913135313589e-02  -3.4379453172712668e-02  3.2790460299388730e-02  -3.1040724530456365e-02  2.9160834623588473e-02  -2.7182233052046118e-02  2.5136254480867058e-02  -2.3053181418585294e-02  2.0961352358563834e-02  -1.8886345557208771e-02  1.6850273517014732e-02  -1.4871208079761110e-02  1.2962758714952826e-02  -1.1133809478269908e-02  9.3884346785701560e-03  -7.7259872098955577e-03  6.1413579416884859e-03  -4.6253956888353690e-03  3.1654749563609489e-03  -1.7461848061191415e-03  3.5011980311115524e-04  -3.5467675206498240e-04  1.7693256115884981e-03  -3.2115982534589430e-03  4.7022408864388346e-03  -6.2597007592730047e-03  7.8992142493486180e-03  -9.6320086756405392e-03  1.1464650645344958e-02  -1.3398558256936085e-02  1.5429701080456276e-02  -1.7548494559638961e-02  1.9739898425883418e-02  -2.1983712527194346e-02  2.4255060638959908e-02  -2.6525050184516456e-02  2.8761583235203090e-02  -3.0930287754176937e-02  3.2995547144933787e-02  -3.4921581510766957e-02  3.6673551741857532e-02  -3.8218645783595358e-02  3.9527108776668117e-02  -4.0573186031598686e-02  4.1335938615122692e-02  -4.1799913246791685e-02  4.1955635900087641e-02  -4.1799913910176810e-02  4.1335939534236046e-02  -4.0573187091853917e-02  3.9527110100524794e-02  -3.8218647127150791e-02  3.6673553588996773e-02  -3.4921583525048983e-02  3.2995548976650614e-02  -3.0930289517614954e-02  2.8761584662444131e-02  -2.6525051754620409e-02  2.4255061791201699e-02  -2.1983713649247328e-02  1.9739899433734057e-02  -1.7548494549694826e-02  1.5429700003311925e-02  -1.3398556343495498e-02  1.1464647597526976e-02  -9.6320047469882104e-03  7.8992097643330074e-03  -6.2596961672289749e-03  4.7022365031664706e-03  -3.2115948739397074e-03  1.7693236307942477e-03  -3.5467655667372692e-04  3.3997067109399747e-04  -1.6965458216551780e-03  3.0853827186254610e-03  -4.5307615941922834e-03  6.0543664050085747e-03  -7.6742519237704959e-03  9.4039433668118948e-03  -1.1251696681993380e-02  1.3219947306948063e-02  -1.5304968275370113e-02  1.7496748221459749e-02  -1.9779099332119309e-02  2.2129987147160302e-02  -2.4522074492536104e-02  2.6923460282645518e-02  -2.9298590103473087e-02  3.1609305146920716e-02  -3.3815996906490862e-02  3.5878825743277734e-02  -3.7758960566035255e-02  3.9419802822361565e-02  -4.0828144922263429e-02  4.1955228670959251e-02  -4.2777667182582982e-02  4.3278196012600627e-02  -4.3446228416023441e-02  4.3278196689002311e-02  -4.2777668478841804e-02  4.1955230224503787e-02  -4.0828146681202306e-02  3.9419804876533696e-02  -3.7758962452549005e-02  3.5878827517604135e-02  -3.3815998228848142e-02  3.1609305830425045e-02  -2.9298590688464080e-02  2.6923461132819623e-02  -2.4522075493289396e-02  2.2129988152518765e-02  -1.9779099900886259e-02  1.7496748301850117e-02  -1.5304967476850003e-02  1.3219945891134243e-02  -1.1251693992619344e-02  9.4039394990817274e-03  -7.6742473584538173e-03  6.0543617406729321e-03  -4.5307574070196531e-03  3.0853793728752073e-03  -1.6965440553156235e-03  3.3997055912248609e-04  -3.0563470993451693e-04  1.5260190337910591e-03  -2.7835313075729195e-03  4.1061729777711340e-03  -5.5190573632344355e-03  7.0432637238334135e-03  -8.6948316638106420e-03  1.0483939337743201e-02  -1.2414287603415239e-02  1.4482717227016965e-02  -1.6679070465940145e-02  1.8986306338078230e-02  -2.1380863315373765e-02  2.3833258385287121e-02  -2.6308903190884133e-02  2.8769110021129956e-02  -3.1172252299653896e-02  3.3475040546019609e-02  -3.5633870758931194e-02  3.7606198044376121e-02  -3.9351889559382777e-02  4.0834507327711697e-02  -4.2022480148678903e-02  4.2890124002777127e-02  -4.3418473548061338e-02  4.3595896748059672e-02  -4.3418474265436290e-02  4.2890125608737763e-02  -4.2022481947763327e-02  4.0834509276006077e-02  -3.9351891762384066e-02  3.7606199891509685e-02  -3.5633872014427151e-02  3.3475041310141035e-02  -3.1172252698955447e-02  2.8769110467726428e-02  -2.6308903674656724e-02  2.3833258906154647e-02  -2.1380864045510026e-02  1.8986306755793322e-02  -1.6679070550254995e-02  1.4482716847658044e-02  -1.2414286559872610e-02  1.0483937259600931e-02  -8.6948283433657438e-03  7.0432594149588941e-03  -5.5190528283253684e-03  4.1061686350109669e-03  -2.7835282103014342e-03  1.5260172193005508e-03  -3.0563446410397123e-04  2.5201423316855917e-04  -1.2594620777690066e-03  2.3091087414310193e-03  -3.4328460910370488e-03  4.6593956093638512e-03  -6.0130493183911905e-03  7.5125668568272325e-03  -9.1702700667472738e-03  1.0991365711318410e-02  -1.2973521686816114e-02  1.5106712032339948e-02  -1.7373337050844113e-02  1.9748618535885078e-02  -2.2201249081975152e-02  2.4694282682928666e-02  -2.7186231219324480e-02  2.9632330274557188e-02  -3.1985933110576244e-02  3.4199980323331124e-02  -3.6228503618510037e-02  3.8028100147878607e-02  -3.9559336413604880e-02  4.0788027791280997e-02  -4.1686352755956904e-02  4.2233760788446026e-02  -4.2417646764123018e-02  4.2233761961696266e-02  -4.1686354351296209e-02  4.0788030171726844e-02  -3.9559338773916479e-02  3.8028102163478267e-02  -3.6228505144533477e-02  3.4199981377241007e-02  -3.1985933507040043e-02  2.9632330937474326e-02  -2.7186231718048647e-02  2.4694283172564172e-02  -2.2201249401345664e-02  1.9748618708194044e-02  -1.7373337108175957e-02  1.5106711847695367e-02  -1.2973521836397106e-02  1.0991365453813975e-02  -9.1702687149904233e-03  7.5125642233257618e-03  -6.0130453638703677e-03  4.6593912849579007e-03  -3.4328421524771817e-03  2.3091056319836617e-03  -1.2594600194260363e-03  2.5201389271715458e-04  -1.8015722708427057e-04  9.0209158195079543e-04  -1.6714653301586021e-03  2.5242015896299172e-03  -3.4927803897633384e-03  4.6048719001059767e-03  -5.8821374762511305e-03  7.3392440725957176e-03  -8.9831269899677945e-03  1.0812525769538017e-02  -1.2817812122494405e-02  1.4981115574199769e-02  -1.7276744815381159e-02  1.9671887335167532e-02  -2.2127569284959639e-02  2.4599836481295885e-02  -2.7041122262924506e-02  2.9401750010662975e-02  -3.1631523066944986e-02  3.3681345978580891e-02  -3.5504818923164858e-02  3.7059754335512327e-02  -3.8309559609597386e-02  3.9224440493022983e-02  -3.9782383332995948e-02  3.9969882018983591e-02  -3.9782383952487226e-02  3.9224441856928229e-02  -3.8309561434143456e-02  3.7059756324117912e-02  -3.5504820535680687e-02  3.3681347270872422e-02  -3.1631524130729220e-02  2.9401750465341683e-02  -2.7041122757978719e-02  2.4599836988726465e-02  -2.2127569322574703e-02  1.9671886985118320e-02  -1.7276744086261970e-02  1.4981115014966758e-02  -1.2817811838166965e-02  1.0812525965679033e-02  -8.9831266706058843e-03  7.3392431037046539e-03  -5.8821353957160954e-03  4.6048685236293359e-03  -3.4927764492993130e-03  2.5241976649267475e-03  -1.6714621618407733e-03  9.0208968491993285e-04  -1.8015686102270653e-04  9.1782216467541832e-05  -4.6246143295540645e-04  8.8594219106373267e-04  -1.4022812884124602e-03  2.0478332942014889e-03  -2.8537758070878573e-03  3.8448215158743181e-03  -5.0381536079631400e-03  6.4426316781319897e-03  -8.0582882228526376e-03  9.8761385107825356e-03  -1.1878309837183536e-02  1.4038489147727259e-02  -1.6322667717590111e-02  1.8690164592277906e-02  -2.1094890431158281e-02  2.3486807788053982e-02  -2.5813538707289464e-02  2.8022065670770761e-02  -3.0060466088878753e-02  3.1879618682001863e-02  -3.3434827205262078e-02  3.4687299073200784e-02  -3.5605436209865865e-02  3.6165883625807770e-02  -3.6354310103623950e-02  3.6165884081729743e-02  -3.5605437110349518e-02  3.4687300694863733e-02  -3.3434828679093628e-02  3.1879619891523929e-02  -3.0060467076816623e-02  2.8022066332119695e-02  -2.5813538975532513e-02  2.3486808042711776e-02  -2.1094890635558850e-02  1.8690164315703764e-02  -1.6322667069291124e-02  1.4038488090524758e-02  -1.1878308920228958e-02  9.8761380275894789e-03  -8.0582878972976588e-03  6.4426312919007135e-03  -5.0381527287113930e-03  3.8448195895381516e-03  -2.8537735071178772e-03  2.0478301923791448e-03  -1.4022782920250696e-03  8.8593942216322026e-04  -4.6245958582130935e-04  9.1781873834705734e-05  1.0779234253899386e-05  -4.7820657051357678e-05  2.6636591551764425e-05  9.7021634165329670e-05  -3.6345052557566526e-04  8.0742370327565466e-04  -1.4568116566158501e-03  2.3314482920972755e-03  -3.4422779269280839e-03  4.7908139097411718e-03  -6.3689322833315439e-03  8.1590029647296506e-03  -1.0134359520368084e-02  1.2260087388294778e-02  -1.4494106437702790e-02  1.6788508833871278e-02  -1.9091109323902015e-02  2.1347150508780881e-02  -2.3501106670280238e-02  2.5498524960508698e-02  -2.7287836664089227e-02  2.8822080207674860e-02  -3.0060473646250759e-02  3.0969781460321602e-02  -3.1525432184722771e-02  3.1712343918487915e-02  -3.1525432343395311e-02  3.0969782131906032e-02  -3.0060474433786618e-02  2.8822081350623231e-02  -2.7287837578889442e-02  2.5498525569440936e-02  -2.3501106834086367e-02  2.1347150187557635e-02  -1.9091108811525186e-02  1.6788507988693045e-02  -1.4494105367078087e-02  1.2260086452697451e-02  -1.0134358502143101e-02  8.1590021128062976e-03  -6.3689319764130585e-03  4.7908140494112997e-03  -3.4422777950662590e-03  2.3314480196080217e-03  -1.4568103835304247e-03  8.0742195966161082e-04  -3.6344833620977404e-04  9.7019351914117707e-05  2.6638548780579188e-05  -4.7822043716080341e-05  1.0779618671676470e-05  -1.2466018195806671e-04  6.1448229121190655e-04  -1.0406613910548730e-03  1.3547545219269499e-03  -1.5125050937248542e-03  1.4755098401344660e-03  -1.2126792441360145e-03  7.0144179138421404e-04  7.1348460310710090e-05  -1.1088360354339145e-03  2.4039383368730503e-03  -3.9394794993408777e-03  5.6886808670410949e-03  -7.6159870618480669e-03  9.6782039190200699e-03  -1.1825906491373647e-02  1.4005069611559024e-02  -1.6158865528911721e-02  1.8229563190006157e-02  -2.0160469137423479e-02  2.1897835311303696e-02  -2.3392675835187587e-02  2.4602424549799502e-02  -2.5492376198667951e-02  2.6036864232163798e-02  -2.6220131271895212e-02  2.6036864525673185e-02  -2.5492376869349610e-02  2.4602425496379136e-02  -2.3392676631011817e-02  2.1897835148793149e-02  -2.0160468441693197e-02  1.8229562279032382e-02  -1.6158863935223752e-02  1.4005068037289983e-02  -1.1825904984160723e-02  9.6782023263555349e-03  -7.6159856741753722e-03  5.6886799258713703e-03  -3.9394791209914687e-03  2.4039383540594744e-03  -1.1088367399597705e-03  7.1349444974461125e-05  7.0144134020526350e-04  -1.2126793793532363e-03  1.4755106846857354e-03  -1.5125061152930575e-03  1.3547555822001486e-03  -1.0406622476005212e-03  6.1448303480213554e-04  -1.2466037638551029e-04  2.4655535585185235e-04  -1.2210685034246581e-03  2.1266038708157619e-03  -2.9105806062464023e-03  3.5248258706993881e-03  -3.9273263468427985e-03  4.0837687010570828e-03  -3.9688094840723285e-03  3.5670314844260332e-03  -2.8735559719128547e-03  1.8942848247800017e-03  -6.4576492942127546e-04  -8.4531855803904408e-04  2.5430052405444269e-03  -4.4032450275463403e-03  6.3753726694792817e-03  -8.4038127014422308e-03  1.0429959331601435e-02  -1.2394166106973749e-02  1.4237776157805635e-02  -1.5905121642451156e-02  1.7345426088910047e-02  -1.8514540014714646e-02  1.9376450515853880e-02  -1.9904516120422829e-02  2.0082376838031886e-02  -1.9904516286936159e-02  1.9376450878065679e-02  -1.8514540021479682e-02  1.7345425469660555e-02  -1.5905120053829633e-02  1.4237774032701782e-02  -1.2394164300652126e-02  1.0429957103215129e-02  -8.4038106733993270e-03  6.3753707717819621e-03  -4.4032432039246457e-03  2.5430037552642611e-03  -8.4531836490583392e-04  -6.4576472330716780e-04  1.8942840710946143e-03  -2.8735547645204898e-03  3.5670296669835363e-03  -3.9688074654963624e-03  4.0837678321054378e-03  -3.9273259120667873e-03  3.5248256461433568e-03  -2.9105803831957181e-03