<?xml version="1.0"?>
<VTKFile type="UnstructuredGrid"  version="0.1"  >
<UnstructuredGrid>
<Piece  NumberOfPoints="2601" NumberOfCells="5000">
<Points>
<DataArray  type="Float64"  NumberOfComponents="3"  format="ascii">-10 -10 0  -9.6 -10 0  -9.199999999999999 -10 0  -8.800000000000001 -10 0  -8.4 -10 0  -8 -10 0  -7.6 -10 0  -7.2 -10 0  -6.8 -10 0  -6.4 -10 0  -6 -10 0  -5.6 -10 0  -5.2 -10 0  -4.8 -10 0  -4.4 -10 0  -4 -10 0  -3.6 -10 0  -3.2 -10 0  -2.8 -10 0  -2.4 -10 0  -2 -10 0  -1.6 -10 0  -1.199999999999999 -10 0  -0.8000000000000007 -10 0  -0.4000000000000004 -10 0  0 -10 0  0.4000000000000004 -10 0  0.8000000000000007 -10 0  1.199999999999999 -10 0  1.6 -10 0  2 -10 0  2.4 -10 0  2.800000000000001 -10 0  3.199999999999999 -10 0  3.6 -10 0  4 -10 0  4.4 -10 0  4.800000000000001 -10 0  5.199999999999999 -10 0  5.6 -10 0  6 -10 0  6.399999999999999 -10 0  6.800000000000001 -10 0  7.199999999999999 -10 0  7.600000000000001 -10 0  8 -10 0  8.399999999999999 -10 0  8.800000000000001 -10 0  9.199999999999999 -10 0  9.600000000000001 -10 0  10 -10 0  -10 -9.6 0  -9.6 -9.6 0  -9.199999999999999 -9.6 0  -8.800000000000001 -9.6 0  -8.4 -9.6 0  -8 -9.6 0  -7.6 -9.6 0  -7.2 -9.6 0  -6.8 -9.6 0  -6.4 -9.6 0  -6 -9.6 0  -5.6 -9.6 0  -5.2 -9.6 0  -4.8 -9.6 0  -4.4 -9.6 0  -4 -9.6 0  -3.6 -9.6 0  -3.2 -9.6 0  -2.8 -9.6 0  -2.4 -9.6 0  -2 -9.6 0  -1.6 -9.6 0  -1.199999999999999 -9.6 0  -0.8000000000000007 -9.6 0  -0.4000000000000004 -9.6 0  0 -9.6 0  0.4000000000000004 -9.6 0  0.8000000000000007 -9.6 0  1.199999999999999 -9.6 0  1.6 -9.6 0  2 -9.6 0  2.4 -9.6 0  2.800000000000001 -9.6 0  3.199999999999999 -9.6 0  3.6 -9.6 0  4 -9.6 0  4.4 -9.6 0  4.800000000000001 -9.6 0  5.199999999999999 -9.6 0  5.6 -9.6 0  6 -9.6 0  6.399999999999999 -9.6 0  6.800000000000001 -9.6 0  7.199999999999999 -9.6 0  7.600000000000001 -9.6 0  8 -9.6 0  8.399999999999999 -9.6 0  8.800000000000001 -9.6 0  9.199999999999999 -9.6 0  9.600000000000001 -9.6 0  10 -9.6 0  -10 -9.199999999999999 0  -9.6 -9.199999999999999 0  -9.199999999999999 -9.199999999999999 0  -8.800000000000001 -9.199999999999999 0  -8.4 -9.199999999999999 0  -8 -9.199999999999999 0  -7.6 -9.199999999999999 0  -7.2 -9.199999999999999 0  -6.8 -9.199999999999999 0  -6.4 -9.199999999999999 0  -6 -9.199999999999999 0  -5.6 -9.199999999999999 0  -5.2 -9.199999999999999 0  -4.8 -9.199999999999999 0  -4.4 -9.199999999999999 0  -4 -9.199999999999999 0  -3.6 -9.199999999999999 0  -3.2 -9.199999999999999 0  -2.8 -9.199999999999999 0  -2.4 -9.199999999999999 0  -2 -9.199999999999999 0  -1.6 -9.199999999999999 0  -1.199999999999999 -9.199999999999999 0  -0.8000000000000007 -9.199999999999999 0  -0.4000000000000004 -9.199999999999999 0  0 -9.199999999999999 0  0.4000000000000004 -9.199999999999999 0  0.8000000000000007 -9.199999999999999 0  1.199999999999999 -9.199999999999999 0  1.6 -9.199999999999999 0  2 -9.199999999999999 0  2.4 -9.199999999999999 0  2.800000000000001 -9.199999999999999 0  3.199999999999999 -9.199999999999999 0  3.6 -9.199999999999999 0  4 -9.199999999999999 0  4.4 -9.199999999999999 0  4.800000000000001 -9.199999999999999 0  5.199999999999999 -9.199999999999999 0  5.6 -9.199999999999999 0  6 -9.199999999999999 0  6.399999999999999 -9.199999999999999 0  6.800000000000001 -9.199999999999999 0  7.199999999999999 -9.199999999999999 0  7.600000000000001 -9.199999999999999 0  8 -9.199999999999999 0  8.399999999999999 -9.199999999999999 0  8.800000000000001 -9.199999999999999 0  9.199999999999999 -9.199999999999999 0  9.600000000000001 -9.199999999999999 0  10 -9.199999999999999 0  -10 -8.800000000000001 0  -9.6 -8.800000000000001 0  -9.199999999999999 -8.800000000000001 0  -8.800000000000001 -8.800000000000001 0  -8.4 -8.800000000000001 0  -8 -8.800000000000001 0  -7.6 -8.800000000000001 0  -7.2 -8.800000000000001 0  -6.8 -8.800000000000001 0  -6.4 -8.800000000000001 0  -6 -8.800000000000001 0  -5.6 -8.800000000000001 0  -5.2 -8.800000000000001 0  -4.8 -8.800000000000001 0  -4.4 -8.800000000000001 0  -4 -8.800000000000001 0  -3.6 -8.800000000000001 0  -3.2 -8.800000000000001 0  -2.8 -8.800000000000001 0  -2.4 -8.800000000000001 0  -2 -8.800000000000001 0  -1.6 -8.800000000000001 0  -1.199999999999999 -8.800000000000001 0  -0.8000000000000007 -8.800000000000001 0  -0.4000000000000004 -8.800000000000001 0  0 -8.800000000000001 0  0.4000000000000004 -8.800000000000001 0  0.8000000000000007 -8.800000000000001 0  1.199999999999999 -8.800000000000001 0  1.6 -8.800000000000001 0  2 -8.800000000000001 0  2.4 -8.800000000000001 0  2.800000000000001 -8.800000000000001 0  3.199999999999999 -8.800000000000001 0  3.6 -8.800000000000001 0  4 -8.800000000000001 0  4.4 -8.800000000000001 0  4.800000000000001 -8.800000000000001 0  5.199999999999999 -8.800000000000001 0  5.6 -8.800000000000001 0  6 -8.800000000000001 0  6.399999999999999 -8.800000000000001 0  6.800000000000001 -8.800000000000001 0  7.199999999999999 -8.800000000000001 0  7.600000000000001 -8.800000000000001 0  8 -8.800000000000001 0  8.399999999999999 -8.800000000000001 0  8.800000000000001 -8.800000000000001 0  9.199999999999999 -8.800000000000001 0  9.600000000000001 -8.800000000000001 0  10 -8.800000000000001 0  -10 -8.4 0  -9.6 -8.4 0  -9.199999999999999 -8.4 0  -8.800000000000001 -8.4 0  -8.4 -8.4 0  -8 -8.4 0  -7.6 -8.4 0  -7.2 -8.4 0  -6.8 -8.4 0  -6.4 -8.4 0  -6 -8.4 0  -5.6 -8.4 0  -5.2 -8.4 0  -4.8 -8.4 0  -4.4 -8.4 0  -4 -8.4 0  -3.6 -8.4 0  -3.2 -8.4 0  -2.8 -8.4 0  -2.4 -8.4 0  -2 -8.4 0  -1.6 -8.4 0  -1.199999999999999 -8.4 0  -0.8000000000000007 -8.4 0  -0.4000000000000004 -8.4 0  0 -8.4 0  0.4000000000000004 -8.4 0  0.8000000000000007 -8.4 0  1.199999999999999 -8.4 0  1.6 -8.4 0  2 -8.4 0  2.4 -8.4 0  2.800000000000001 -8.4 0  3.199999999999999 -8.4 0  3.6 -8.4 0  4 -8.4 0  4.4 -8.4 0  4.800000000000001 -8.4 0  5.199999999999999 -8.4 0  5.6 -8.4 0  6 -8.4 0  6.399999999999999 -8.4 0  6.800000000000001 -8.4 0  7.199999999999999 -8.4 0  7.600000000000001 -8.4 0  8 -8.4 0  8.399999999999999 -8.4 0  8.800000000000001 -8.4 0  9.199999999999999 -8.4 0  9.600000000000001 -8.4 0  10 -8.4 0  -10 -8 0  -9.6 -8 0  -9.199999999999999 -8 0  -8.800000000000001 -8 0  -8.4 -8 0  -8 -8 0  -7.6 -8 0  -7.2 -8 0  -6.8 -8 0  -6.4 -8 0  -6 -8 0  -5.6 -8 0  -5.2 -8 0  -4.8 -8 0  -4.4 -8 0  -4 -8 0  -3.6 -8 0  -3.2 -8 0  -2.8 -8 0  -2.4 -8 0  -2 -8 0  -1.6 -8 0  -1.199999999999999 -8 0  -0.8000000000000007 -8 0  -0.4000000000000004 -8 0  0 -8 0  0.4000000000000004 -8 0  0.8000000000000007 -8 0  1.199999999999999 -8 0  1.6 -8 0  2 -8 0  2.4 -8 0  2.800000000000001 -8 0  3.199999999999999 -8 0  3.6 -8 0  4 -8 0  4.4 -8 0  4.800000000000001 -8 0  5.199999999999999 -8 0  5.6 -8 0  6 -8 0  6.399999999999999 -8 0  6.800000000000001 -8 0  7.199999999999999 -8 0  7.600000000000001 -8 0  8 -8 0  8.399999999999999 -8 0  8.800000000000001 -8 0  9.199999999999999 -8 0  9.600000000000001 -8 0  10 -8 0  -10 -7.6 0  -9.6 -7.6 0  -9.199999999999999 -7.6 0  -8.800000000000001 -7.6 0  -8.4 -7.6 0  -8 -7.6 0  -7.6 -7.6 0  -7.2 -7.6 0  -6.8 -7.6 0  -6.4 -7.6 0  -6 -7.6 0  -5.6 -7.6 0  -5.2 -7.6 0  -4.8 -7.6 0  -4.4 -7.6 0  -4 -7.6 0  -3.6 -7.6 0  -3.2 -7.6 0  -2.8 -7.6 0  -2.4 -7.6 0  -2 -7.6 0  -1.6 -7.6 0  -1.199999999999999 -7.6 0  -0.8000000000000007 -7.6 0  -0.4000000000000004 -7.6 0  0 -7.6 0  0.4000000000000004 -7.6 0  0.8000000000000007 -7.6 0  1.199999999999999 -7.6 0  1.6 -7.6 0  2 -7.6 0  2.4 -7.6 0  2.800000000000001 -7.6 0  3.199999999999999 -7.6 0  3.6 -7.6 0  4 -7.6 0  4.4 -7.6 0  4.800000000000001 -7.6 0  5.199999999999999 -7.6 0  5.6 -7.6 0  6 -7.6 0  6.399999999999999 -7.6 0  6.800000000000001 -7.6 0  7.199999999999999 -7.6 0  7.600000000000001 -7.6 0  8 -7.6 0  8.399999999999999 -7.6 0  8.800000000000001 -7.6 0  9.199999999999999 -7.6 0  9.600000000000001 -7.6 0  10 -7.6 0  -10 -7.2 0  -9.6 -7.2 0  -9.199999999999999 -7.2 0  -8.800000000000001 -7.2 0  -8.4 -7.2 0  -8 -7.2 0  -7.6 -7.2 0  -7.2 -7.2 0  -6.8 -7.2 0  -6.4 -7.2 0  -6 -7.2 0  -5.6 -7.2 0  -5.2 -7.2 0  -4.8 -7.2 0  -4.4 -7.2 0  -4 -7.2 0  -3.6 -7.2 0  -3.2 -7.2 0  -2.8 -7.2 0  -2.4 -7.2 0  -2 -7.2 0  -1.6 -7.2 0  -1.199999999999999 -7.2 0  -0.8000000000000007 -7.2 0  -0.4000000000000004 -7.2 0  0 -7.2 0  0.4000000000000004 -7.2 0  0.8000000000000007 -7.2 0  1.199999999999999 -7.2 0  1.6 -7.2 0  2 -7.2 0  2.4 -7.2 0  2.800000000000001 -7.2 0  3.199999999999999 -7.2 0  3.6 -7.2 0  4 -7.2 0  4.4 -7.2 0  4.800000000000001 -7.2 0  5.199999999999999 -7.2 0  5.6 -7.2 0  6 -7.2 0  6.399999999999999 -7.2 0  6.800000000000001 -7.2 0  7.199999999999999 -7.2 0  7.600000000000001 -7.2 0  8 -7.2 0  8.399999999999999 -7.2 0  8.800000000000001 -7.2 0  9.199999999999999 -7.2 0  9.600000000000001 -7.2 0  10 -7.2 0  -10 -6.8 0  -9.6 -6.8 0  -9.199999999999999 -6.8 0  -8.800000000000001 -6.8 0  -8.4 -6.8 0  -8 -6.8 0  -7.6 -6.8 0  -7.2 -6.8 0  -6.8 -6.8 0  -6.4 -6.8 0  -6 -6.8 0  -5.6 -6.8 0  -5.2 -6.8 0  -4.8 -6.8 0  -4.4 -6.8 0  -4 -6.8 0  -3.6 -6.8 0  -3.2 -6.8 0  -2.8 -6.8 0  -2.4 -6.8 0  -2 -6.8 0  -1.6 -6.8 0  -1.199999999999999 -6.8 0  -0.8000000000000007 -6.8 0  -0.4000000000000004 -6.8 0  0 -6.8 0  0.4000000000000004 -6.8 0  0.8000000000000007 -6.8 0  1.199999999999999 -6.8 0  1.6 -6.8 0  2 -6.8 0  2.4 -6.8 0  2.800000000000001 -6.8 0  3.199999999999999 -6.8 0  3.6 -6.8 0  4 -6.8 0  4.4 -6.8 0  4.800000000000001 -6.8 0  5.199999999999999 -6.8 0  5.6 -6.8 0  6 -6.8 0  6.399999999999999 -6.8 0  6.800000000000001 -6.8 0  7.199999999999999 -6.8 0  7.600000000000001 -6.8 0  8 -6.8 0  8.399999999999999 -6.8 0  8.800000000000001 -6.8 0  9.199999999999999 -6.8 0  9.600000000000001 -6.8 0  10 -6.8 0  -10 -6.4 0  -9.6 -6.4 0  -9.199999999999999 -6.4 0  -8.800000000000001 -6.4 0  -8.4 -6.4 0  -8 -6.4 0  -7.6 -6.4 0  -7.2 -6.4 0  -6.8 -6.4 0  -6.4 -6.4 0  -6 -6.4 0  -5.6 -6.4 0  -5.2 -6.4 0  -4.8 -6.4 0  -4.4 -6.4 0  -4 -6.4 0  -3.6 -6.4 0  -3.2 -6.4 0  -2.8 -6.4 0  -2.4 -6.4 0  -2 -6.4 0  -1.6 -6.4 0  -1.199999999999999 -6.4 0  -0.8000000000000007 -6.4 0  -0.4000000000000004 -6.4 0  0 -6.4 0
[...]
<PointData  Scalars="f_115"> 
<DataArray  type="Float64"  Name="f_115"  format="ascii">-2.7421436873251507e-05  1.9070703646036517e-04  -3.4399985993112408e-04  4.9505277980306322e-04  -6.4398385171108338e-04  7.9026495215666563e-04  -9.3332450481935832e-04  1.0726056478744909e-03  -1.2075748959443642e-03  1.3377249657369906e-03  -1.4625761257067744e-03  1.5816767009913097e-03  -1.6946029406835934e-03  1.8009584023935745e-03  -1.9003730091762367e-03  1.9925019408590558e-03  -2.0770245233620345e-03  2.1536432717125082e-03  -2.2220832267613078e-03  2.2820917001107450e-03  -2.3334385096811737e-03  2.3759167507273206e-03  -2.4093441069956848e-03  2.4335646650247692e-03  -2.4484511568781727e-03  2.4539075209705800e-03  -2.4498716443766880e-03  2.4363181292188889e-03  -2.4132609173661123e-03  2.3807556074754372e-03  -2.3389013091764349e-03  2.2878419000163853e-03  -2.2277665790507353e-03  2.1589096465761707e-03  -2.0815494794348285e-03  1.9960067127688420e-03  -1.9026416812947815e-03  1.8018512106379948e-03  -1.6940648828257616e-03  1.5797409253706534e-03  -1.4593618891670082e-03  1.3334302869528508e-03  -1.2024643567413152e-03  1.0669940941731000e-03  -9.2755765226994950e-04  7.8469809238110506e-04  -6.3895997898629267e-04  4.9088153332005140e-04  -3.4093903499901460e-04  1.8895287187422510e-04  -2.7167732012723727e-05  1.8960227725732973e-04  -9.4604514788590151e-04  1.6985960782708149e-03  -2.4439115555137188e-03  3.1790798090063780e-03  -3.9011934369675423e-03  4.6074028975198267e-03  -5.2949560106468011e-03  5.9612188666600613e-03  -6.6036875878540836e-03  7.2199946744819646e-03  -7.8079113915272098e-03  8.3653470371180122e-03  -8.8903458276423826e-03  9.3810821630724017e-03  -9.8358550750468777e-03  1.0253082667428842e-02  -1.0631297324702700e-02  1.0969142381388949e-02  -1.1265370822360976e-02  1.1518846422661204e-02  -1.1728547550154929e-02  1.1893573653161732e-02  -1.2013154251640295e-02  1.2086660057946190e-02  -1.2113615682973667e-02  1.2093713245398865e-02  -1.2026826106458183e-02  1.1913021904264442e-02  -1.1752574064569633e-02  1.1545971017996435e-02  -1.1293922455186331e-02  1.0997362093795321e-02  -1.0657446607169678e-02  1.0275550561814822e-02  -9.8532574196655478e-03  9.3923468658437467e-03  -8.8947789137924817e-03  8.3626754026868578e-03  -7.7982996286803368e-03  7.2040349325342397e-03  -6.5823630944582320e-03  5.9358433569334425e-03  -5.2670927973986386e-03  4.5787685699276610e-03  -3.8735521275800565e-03  3.1541345606942318e-03  -2.4231995351922382e-03  1.6833942397312975e-03  -9.3729227807299394e-04  1.8783779591798026e-04  -3.3088741622949752e-04  1.6433334920689096e-03  -2.9492132463413150e-03  4.2429039922167048e-03  -5.5190821527757632e-03  6.7725979173104958e-03  -7.9984708481538828e-03  9.1919127360497628e-03  -1.0348349938677339e-02  1.1463439578145364e-02  -1.2533079009819519e-02  1.3553409095447173e-02  -1.4520812184480848e-02  1.5431905940144633e-02  -1.6283534321569641e-02  1.7072757141296465e-02  -1.7796839646534415e-02  1.8453243512769831e-02  -1.9039620494942198e-02  1.9553809758787750e-02  -1.9993839627340325e-02  2.0357934144287253e-02  -2.0644524494431833e-02  2.0852264956929531e-02  -2.0980052720666872e-02  2.1027050585470105e-02  -2.0992711325231929e-02  2.0876802317483751e-02  -2.0679428957327245e-02  2.0401055377978591e-02  -2.0042521096240461e-02  1.9605052382231283e-02  -1.9090267409109553e-02  1.8500174553181203e-02  -1.7837163569639668e-02  1.7103989743160186e-02  -1.6303751480438874e-02  1.5439862154685206e-02  -1.4516017304824559e-02  1.3536158520243511e-02  -1.2504435488969729e-02  1.1425167742685491e-02  -1.0302807591204638e-02  9.1419056003205004e-03  -7.9470797275386518e-03  6.7229889126438564e-03  -5.4743116364833174e-03  4.2057303506621430e-03  -2.9219269380080255e-03  1.6276155858773651e-03  -3.2770414120907699e-04  4.5105044485470118e-04  -2.2395919372560436e-03  4.0189215516636626e-03  -5.7816075599710576e-03  7.5203884808087559e-03  -9.2282136679588834e-03  1.0898275023968564e-02  -1.2524039476311553e-02  1.4099276909348294e-02  -1.5618080323149316e-02  1.7074877273196461e-02  -1.8464432911201079e-02  1.9781845675251340e-02  -2.1022537149836876e-02  2.2182237935222560e-02  -2.3256971550780565e-02  2.4243038449529554e-02  -2.5137002141958398e-02  2.5935679222053535e-02  -2.6636134768983560e-02  2.7235684184873606e-02  -2.7731902048330564e-02  2.8122638044652891e-02  -2.8406039506899437e-02  2.8580579605279547e-02  -2.8645089780538705e-02  2.8598794661417161e-02  -2.8441347458693620e-02  2.8172863703213102e-02  -2.7793951201448182e-02  2.7305734219635957e-02  -2.6709870168452034e-02  2.6008557427708485e-02  -2.5204533403613567e-02  2.4301062421923682e-02  -2.3301913596769752e-02  2.2211329345872815e-02  -2.1033985714494937e-02  1.9774946093419937e-02  -1.8439610244164784e-02  1.7033660758857837e-02  -1.5563009167211882e-02  1.4033743856714452e-02  -1.2452081800498147e-02  1.0824325810468795e-02  -9.1568287138205397e-03  7.4559656313282294e-03  -5.7281157594588680e-03  3.9796562582799138e-03  -2.2169718856567011e-03  4.4646828417893342e-04  -5.4346956262746554e-04  2.6984263954320967e-03  -4.8421371174221474e-03  6.9656691186004514e-03  -9.0602578651171710e-03  1.1117381798978941e-02  -1.3128818441987251e-02  1.5086689675569951e-02  -1.6983496664673626e-02  1.8812143604928527e-02  -2.0565950063068137e-02  2.2238652539213727e-02  -2.3824396626650934e-02  2.5317721730554524e-02  -2.6713540725359482e-02  2.8007117180349178e-02  -2.9194042855850887e-02  3.0270218073349224e-02  -3.1231837295741062e-02  3.2075381839941547e-02  -3.2797621105748666e-02  3.3395623079901383e-02  -3.3866774197192334e-02  3.4208807957542484e-02  -3.4419841047360011e-02  3.4498415141444354e-02  -3.4443542096264046e-02  3.4254749923714758e-02  -3.3932126770509996e-02  3.3476360136379765e-02  -3.2888768741756606e-02  3.2171324795304407e-02  -3.1326664888597117e-02  3.0358088334864211e-02  -2.9269542431762743e-02  2.8065594827356540e-02  -2.6751393856789207e-02  2.5332618358363933e-02  -2.3815419027082826e-02  2.2206353790835257e-02  -2.0512319974788414e-02  1.8740486132671721e-02  -1.6898226368614332e-02  1.4993059757505678e-02  -1.3032597116558093e-02  1.1024496934629310e-02  -8.9764317835728039e-03  6.8960660425786482e-03  -4.7910449746178703e-03  2.6689925827922114e-03  -5.3750704089910030e-04  6.0256486432197671e-04  -2.9918292035866936e-03  5.3684955401055836e-03  -7.7226011537867610e-03  1.0044377411221047e-02  -1.2324333681898574e-02  1.4553326189090613e-02  -1.6722612658658390e-02  1.8823892770843172e-02  -2.0849334169442204e-02  2.2791584267436368e-02  -2.4643768852120197e-02  2.6399479267081104e-02  -2.8052750609489262e-02  2.9598033878996188e-02  -3.1030165313169711e-02  3.2344336236391505e-02  -3.3536066624571030e-02  3.4601185262262871e-02  -3.5535818858618749e-02  3.6336391828702956e-02  -3.6999637677750254e-02  3.7522622094946730e-02  -3.7902777022839867e-02  3.8137944171310466e-02  -3.8226425738634759e-02  3.8167039533435025e-02  -3.7959175292320686e-02  3.7602848788597446e-02  -3.7098750333627931e-02  3.6448284492295778e-02  -3.5653598247389152e-02  3.4717595434496325e-02  -3.3643935990373970e-02  3.2437019372128270e-02  -3.1101952360900902e-02  2.9644502309294662e-02  -2.8071037676975552e-02  2.6388458373810847e-02  -2.4604118953608461e-02  2.2725748045384554e-02  -2.0761367548299041e-02  1.8719215048240673e-02  -1.6607672643403359e-02  1.4435204913608113e-02  -1.2210308163389253e-02  9.9414723344309931e-03  -7.6371560919519200e-03  5.3057743764812247e-03  -2.9556958294412309e-03  5.9524517412143320e-04  -6.2474529553754703e-04  3.1019418904613852e-03  -5.5659158369089773e-03  8.0062301210795887e-03  -1.0412667688512404e-02  1.2775321378572662e-02  -1.5084670150038299e-02  1.7331639516381201e-02  -1.9507645122021695e-02  2.1604619072011999e-02  -2.3615019426221583e-02  2.5531824162223757e-02  -2.7348511778930305e-02  2.9059031465253599e-02  -3.0657766327478658e-02  3.2139493517032734e-02  -3.3499345202365687e-02  3.4732774183542224e-02  -3.5835527558554729e-02  3.6803631248615840e-02  -3.7633387409045732e-02  3.8321385841564533e-02  -3.8864529542294475e-02  3.9260073524545219e-02  -3.9505675113088869e-02  3.9599453070494978e-02  -3.9540052242705501e-02  3.9326709939467193e-02  -3.8959320026197987e-02  3.8438490712917092e-02  -3.7765592281402881e-02  3.6942791481524982e-02  -3.5973070017655005e-02  3.4860225398777422e-02  -3.3608853386201953e-02  3.2224312283381795e-02  -3.0712670310940243e-02  2.9080638236140665e-02  -2.7335490222484989e-02  2.5484976483832696e-02  -2.3537231730948918e-02  2.1500683563151560e-02  -1.9383964871697461e-02  1.7195833996221266e-02  -1.4945105823023221e-02  1.2640596269809137e-02  -1.0291081688057323e-02  7.9052736514440801e-03  -5.4918083898069046e-03  3.0592488700616352e-03  -6.1609678728704014e-04  6.0868529554894185e-04  -3.0221795431600346e-03  5.4225709782963517e-03  -7.7995329537419063e-03  1.0142979014795855e-02  -1.2443157910026929e-02  1.4690734282730586e-02  -1.6876852003831096e-02  1.8993178407739966e-02  -2.1031928806639906e-02  2.2985871748400017e-02  -2.4848316559525491e-02  2.6613085716866235e-02  -2.8274475446575232e-02  2.9827208596752815e-02  -3.1266384222877079e-02  3.2587428441580898e-02  -3.3786050935747977e-02  3.4858211047345940e-02  -3.5800096699257558e-02  3.6608118488617301e-02  -3.7278920246511998e-02  3.7809406227294687e-02  -3.8196783947230036e-02  3.8438620604722404e-02  -3.8532910053800586e-02  3.8478146525335682e-02  -3.8273400746806678e-02  3.7918393836195691e-02  -3.7413564352472971e-02  3.6760124179942413e-02  -3.5960099482469914e-02  3.5016353757922253e-02  -3.3932591000254024e-02  3.2713338080640982e-02  -3.1363906618236792e-02  2.9890335759360828e-02  -2.8299318346033147e-02  2.6598113870098920e-02  -2.4794452318248790e-02  2.2896433476778184e-02  -2.0912426449621237e-02  1.8850974044209441e-02  -1.6720706296299109e-02  1.4530266765041702e-02  -1.2288254362165404e-02  1.0003182434520705e-02  -7.6834556456182763e-03  5.3373639817093730e-03  -2.9730920896063203e-03  5.9874143855012619e-04  -5.5541259540148823e-04  2.7576447150390536e-03  -4.9476161755379862e-03  7.1156822157396726e-03  -9.2524523737853130e-03  1.1348889073125788e-02  -1.3396390535244473e-02  1.5386854602174729e-02  -1.7312721359935494e-02  1.9166993767516276e-02  -2.0943236792500312e-02  2.2635556806373629e-02  -2.4238564134177049e-02  2.5747322617937031e-02  -2.7157290779954209e-02  2.8464259612530535e-02  -2.9664292147354339e-02  3.0753669763212633e-02  -3.1728849683636172e-02  3.2586437333090627e-02  -3.3323176204910460e-02  3.3935956713107410e-02  -3.4421844223847149e-02  3.4778125171941315e-02  -3.5002368942165164e-02  3.5092502110083829e-02  -3.5046890760762020e-02  3.4864425989408310e-02  -3.4544607375270341e-02  3.4087619227878375e-02  -3.3494394732265183e-02  3.2766663750240552e-02  -3.1906980925127296e-02  3.0918731838372491e-02  -2.9806116205948280e-02  2.8574108408803908e-02  -2.7228396941025627e-02  2.5775305555864454e-02  -2.4221699917534669e-02  2.2574884365167500e-02  -2.0842493913784736e-02  1.9032386824656980e-02  -1.7152542961305684e-02  1.5210972714785508e-02  -1.3215640556027457e-02  1.1174406300146713e-02  -9.0949860016638594e-03  6.9849331179913671e-03  -4.8516392722239851e-03  2.7023527446511440e-03  -5.4421186227440396e-04  4.6824584269383182e-04  -2.3248155031332135e-03  4.1706247545365586e-03  -5.9972325691524542e-03  7.7964607267335881e-03  -9.5604941421864442e-03  1.1281963989122222e-02  -1.2954009940435730e-02  1.4570319185709949e-02  -1.6125141321790229e-02  1.7613279670318623e-02  -1.9030060979757648e-02  2.0371286745487511e-02  -2.1633170453895081e-02  2.2812265862275489e-02  -2.3905391912155547e-02  2.4909560013438858e-02  -2.5821909217338582e-02  2.6639654233896463e-02  -2.7360050378785240e-02  2.7980378407570925e-02  -2.8497950883922658e-02  2.8910140312488914e-02  -2.9214427834323826e-02  2.9408469922697075e-02  -2.9490179312243587e-02  2.9457815421139677e-02  -2.9310078843106317e-02  2.9046204137447511e-02  -2.8666045151077620e-02  2.8170147469088344e-02  -2.7559803284673248e-02  2.6837084966640803e-02  -2.6004854818451825e-02  2.5066749896849934e-02  -2.4027142201803738e-02  2.2891075978787558e-02  -2.1664185196587176e-02  2.0352595402862057e-02  -1.8962815041227932e-02  1.7501621887388564e-02  -1.5975950489008739e-02  1.4392786364237332e-02  -1.2759072231533469e-02  1.1081630740820737e-02  -9.3671070986460318e-03  7.6219337002572047e-03  -5.8523174761889044e-03  4.0642492329575029e-03  -2.2635329183508081e-03  4.5583156475555772e-04  -3.5259031010989123e-04  1.7505308762487345e-03  -3.1397657534244028e-03  4.5134975719323765e-03  -5.8651954888253735e-03  7.1886954751162442e-03  -8.4782818849161619e-03  9.7287463803634993e-03  -1.0935421691154161e-02  1.2094189238542897e-02  -1.3201461245358316e-02  1.4254139495248046e-02  -1.5249554304112557e-02  1.6185388442595049e-02  -1.7059591629961377e-02  1.7870291750777024e-02  -1.8615709096262797e-02  1.9294079691304606e-02  -1.9903593150753612e-02  2.0442349553722698e-02  -2.0908338590619562e-02  2.1299442800096321e-02  -2.1613465163400548e-02  2.1848179752743585e-02  -2.2001402641680642e-02  2.2071078964113523e-02  -2.2055380942752272e-02  2.1952810957787800e-02  -2.1762303343019762e-02  2.1483318601745894e-02  -2.1115924127056988e-02  2.0660856270774994e-02  -2.0119559680872239e-02  1.9494201156953710e-02  -1.8787656772316433e-02  1.8003472589991638e-02  -1.7145800860049347e-02  1.6219315030870363e-02  -1.5229108149929255e-02  1.4180580193170415e-02  -1.3079320486402580e-02  1.1930991630132792e-02  -1.0741221194685024e-02  9.5155069251304479e-03  -8.2591403160760090e-03  6.9771522430080897e-03  -5.6742829381706723e-03  4.3549770697786823e-03  -3.0234031181750440e-03  1.6834947454756571e-03  -3.3901051138403798e-04  2.1560487128401783e-04  -1.0703370368244638e-03  1.9188356349910849e-03  -2.7562780786350937e-03  3.5781082181013395e-03  -4.3801350968118106e-03  5.1586115531420881e-03  -5.9102884913957900e-03  6.6324421440200213e-03  -7.3228733078902816e-03  7.9798792553102110e-03  -8.6022006874782522e-03  9.1889476140499613e-03  -9.7395093152443657e-03  1.0253454496495503e-02  -1.0730428319532944e-02  1.1170053155272692e-02  -1.1571839641149672e-02  1.1935113956246784e-02  -1.2258966192425658e-02  1.2542223361345443e-02  -1.2783449022132383e-02  1.2980969832335260e-02  -1.3132927626466144e-02  1.3237354010281666e-02  -1.3292263029764037e-02  1.3295756316038770e-02  -1.3246134295125223e-02  1.3142006633578599e-02  -1.2982395093704238e-02  1.2766822395292301e-02  -1.2495381499047649e-02  1.2168780889408523e-02  -1.1788362870123296e-02  1.1356093505899964e-02  -1.0874524549361884e-02  1.0346729377998075e-02  -9.7762165278155802e-03  9.1668257527457268e-03  -8.5226125795825475e-03  7.8477280019092262e-03  -7.1463002225986396e-03  6.4223251979514508e-03  -5.6795721630634359e-03  4.9215093689987865e-03  -4.1512539906989722e-03  3.3715486545739530e-03  -2.5847653784631000e-03  1.7929360183074989e-03  -9.9780668073576827e-04  2.0091208353168963e-04  -6.5760886446833804e-05  3.2629712454170049e-04  -5.8332712197195068e-04  8.3420532634919200e-04  -1.0765498364876892e-03  1.3083385669458002e-03  -1.5279839120527841e-03  1.7343814887510185e-03  -1.9269301328660074e-03  2.1055220972985285e-03  -2.2705042353865666e-03  2.4226127382153098e-03  -2.5628856185092030e-03  2.6925584979648871e-03  -2.8129502757828144e-03  2.9253458708996373e-03  -3.0308834015109615e-03  3.1304528831072229e-03  -3.2246128061837035e-03  3.3135298435685435e-03  -3.3969455015850172e-03  3.4741718585543295e-03  -3.5441167311333465e-03  3.6053367838274589e-03  -3.6561153651501438e-03  3.6945603172855398e-03  -3.7187157644443963e-03  3.7266810114231206e-03  -3.7167292335437301e-03  3.6874186398796411e-03  -3.6376892430792286e-03  3.5669392433202367e-03  -3.4750762784985156e-03  3.3625403282676264e-03  -3.2302967949147704e-03  3.0798001093669046e-03  -2.9129300155020170e-03  2.7319043582543097e-03  -2.5391736376451255e-03  2.3373037045093616e-03  -2.1288536936683393e-03  1.9162565751273107e-03  -1.7017095327123328e-03  1.4870807664384589e-03  -1.2738382942631898e-03  1.0630049678463653e-03  -8.5514229612450841e-04  6.5036389352234665e-04  -4.4837754446127481e-04  2.4855311459621001e-04  -5.0011946264219914e-05  -8.7679787779461576e-05  4.3560064483650908e-04  -7.8422257213390753e-04  1.1339527976141968e-03  -1.4849391847432919e-03  1.8369772174385952e-03  -2.1894397404175281e-03  2.5412341119018353e-03  -2.8907897298422460e-03  3.2360770140941473e-03  -3.5746569775219972e-03  3.9037586247256339e-03  -4.2203796904619947e-03  4.5214047816707964e-03  -4.8037339016224478e-03  5.0644136831401732e-03  -5.3007634761716941e-03  5.5104887381522910e-03  -5.6917749413232946e-03  5.8433563958182290e-03  -5.9645559145590559e-03  6.0552930248018990e-03  -6.1160603506949102e-03  6.1478697321440366e-03  -6.1521714909658475e-03  6.1307518893214917e-03  -6.0856151486819669e-03  6.0188573286501876e-03  -5.9325398455846246e-03  5.8285704130502675e-03  -5.7085987077110456e-03  5.5739331373727361e-03  -5.4254837675404635e-03  5.2637348308412907e-03  -5.0887484025447629e-03  4.9001988857464316e-03  -4.6974360332713971e-03  4.4795724573100607e-03  -4.2455900522480510e-03  3.9944585740721902e-03  -3.7252588554417257e-03  3.4373028352956319e-03  -3.1302427635490726e-03  2.8041625965278824e-03  -2.4596456825343497e-03  2.0978142873185317e-03  -1.7203382321292467e-03  1.3294118093459288e-03  -9.2770008455685701e-04  5.1825757099953210e-04  -1.0442395867058877e-04  2.3523549288428537e-04  -1.1682766673212562e-03  2.0993174913599990e-03  -3.0266099179555076e-03  3.9481511069359111e-03  -4.8615935905144082e-03  5.7641793627724522e-03  -6.6527027705784109e-03  7.5235052978668360e-03  -8.3725033514008215e-03  9.1952481029291249e-03  -9.9870144432325867e-03  1.0742914284154918e-02  -1.1458027915307367e-02  1.2127545979792901e-02  -1.2746913944207449e-02  1.3311970750338185e-02  -1.3819073654743230e-02  1.4265202074589724e-02  -1.4648034508247481e-02  1.4965994214623527e-02  -1.5218261213107803e-02  1.5404750195329033e-02  -1.5526055989976537e-02  1.5583370171877045e-02  -1.5578374134108208e-02  1.5513115339951741e-02  -1.5389874456455210e-02  1.5211031581543560e-02  -1.4978939778977320e-02  1.4695813635111339e-02  -1.4363639572252075e-02  1.3984113263719107e-02  -1.3558607774084030e-02  1.3088174106682195e-02  -1.2573573795048353e-02  1.2015341153515669e-02  -1.1413870929753168e-02  1.0769525492982428e-02  -1.0082754445399961e-02  9.3542187396531799e-03  -8.5849110690306672e-03  7.7762644907934083e-03  -6.9302419347489997e-03  6.0494003958017437e-03  -5.1369251393327377e-03  4.1966310707007371e-03  -3.2329304171224999e-03  2.2507679262797312e-03  -1.2555267687560919e-03  2.5291012317046495e-04  -3.6778900203976510e-04  1.8264608646803519e-03  -3.2807093235782975e-03  4.7268529066867588e-03  -6.1609590389259221e-03  7.5787569107653796e-03  -8.9755753529981060e-03  1.0346310805277089e-02  -1.1685428590633644e-02  1.2986998631374917e-02  -1.4244764588147909e-02  1.5452243309657184e-02  -1.6602849572285545e-02  1.7690039487857131e-02  -1.8707464758550674e-02  1.9649129238606271e-02  -2.0509539064390615e-02  2.1283837952241310e-02  -2.1967920114279959e-02  2.2558514556941037e-02  -2.3053236220918486e-02  2.3450601393881203e-02  -2.3750006955672833e-02  2.3951675168489187e-02  -2.4056567770611954e-02  2.4066274945931731e-02  -2.3982886209377149e-02  2.3808851283484513e-02  -2.3546839576905784e-02  2.3199606881950292e-02  -2.2769877382327063e-02  2.2260248040233143e-02  -2.1673120973309000e-02  2.1010667630065382e-02  -2.0274826536777989e-02  1.9467334245775132e-02  -1.8589786996485967e-02  1.7643728638100407e-02  -1.6630758677173008e-02  1.5552653007272559e-02  -1.4411489035472526e-02  1.3209766590130498e-02  -1.1950516198589164e-02  1.0637387050261661e-02  -9.2747081632443013e-03  7.8675178803167597e-03  -6.4215587302282771e-03  4.9432367886689766