<?xml version="1.0"?>
<VTKFile type="UnstructuredGrid"  version="0.1"  >
<UnstructuredGrid>
<Piece  NumberOfPoints="2601" NumberOfCells="5000">
<Points>
<DataArray  type="Float64"  NumberOfComponents="3"  format="ascii">-10 -10 0  -9.6 -10 0  -9.199999999999999 -10 0  -8.800000000000001 -10 0  -8.4 -10 0  -8 -10 0  -7.6 -10 0  -7.2 -10 0  -6.8 -10 0  -6.4 -10 0  -6 -10 0  -5.6 -10 0  -5.2 -10 0  -4.8 -10 0  -4.4 -10 0  -4 -10 0  -3.6 -10 0  -3.2 -10 0  -2.8 -10 0  -2.4 -10 0  -2 -10 0  -1.6 -10 0  -1.199999999999999 -10 0  -0.8000000000000007 -10 0  -0.4000000000000004 -10 0  0 -10 0  0.4000000000000004 -10 0  0.8000000000000007 -10 0  1.199999999999999 -10 0  1.6 -10 0  2 -10 0  2.4 -10 0  2.800000000000001 -10 0  3.199999999999999 -10 0  3.6 -10 0  4 -10 0  4.4 -10 0  4.800000000000001 -10 0  5.199999999999999 -10 0  5.6 -10 0  6 -10 0  6.399999999999999 -10 0  6.800000000000001 -10 0  7.199999999999999 -10 0  7.600000000000001 -10 0  8 -10 0  8.399999999999999 -10 0  8.800000000000001 -10 0  9.199999999999999 -10 0  9.600000000000001 -10 0  10 -10 0  -10 -9.6 0  -9.6 -9.6 0  -9.199999999999999 -9.6 0  -8.800000000000001 -9.6 0  -8.4 -9.6 0  -8 -9.6 0  -7.6 -9.6 0  -7.2 -9.6 0  -6.8 -9.6 0  -6.4 -9.6 0  -6 -9.6 0  -5.6 -9.6 0  -5.2 -9.6 0  -4.8 -9.6 0  -4.4 -9.6 0  -4 -9.6 0  -3.6 -9.6 0  -3.2 -9.6 0  -2.8 -9.6 0  -2.4 -9.6 0  -2 -9.6 0  -1.6 -9.6 0  -1.199999999999999 -9.6 0  -0.8000000000000007 -9.6 0  -0.4000000000000004 -9.6 0  0 -9.6 0  0.4000000000000004 -9.6 0  0.8000000000000007 -9.6 0  1.199999999999999 -9.6 0  1.6 -9.6 0  2 -9.6 0  2.4 -9.6 0  2.800000000000001 -9.6 0  3.199999999999999 -9.6 0  3.6 -9.6 0  4 -9.6 0  4.4 -9.6 0  4.800000000000001 -9.6 0  5.199999999999999 -9.6 0  5.6 -9.6 0  6 -9.6 0  6.399999999999999 -9.6 0  6.800000000000001 -9.6 0  7.199999999999999 -9.6 0  7.600000000000001 -9.6 0  8 -9.6 0  8.399999999999999 -9.6 0  8.800000000000001 -9.6 0  9.199999999999999 -9.6 0  9.600000000000001 -9.6 0  10 -9.6 0  -10 -9.199999999999999 0  -9.6 -9.199999999999999 0  -9.199999999999999 -9.199999999999999 0  -8.800000000000001 -9.199999999999999 0  -8.4 -9.199999999999999 0  -8 -9.199999999999999 0  -7.6 -9.199999999999999 0  -7.2 -9.199999999999999 0  -6.8 -9.199999999999999 0  -6.4 -9.199999999999999 0  -6 -9.199999999999999 0  -5.6 -9.199999999999999 0  -5.2 -9.199999999999999 0  -4.8 -9.199999999999999 0  -4.4 -9.199999999999999 0  -4 -9.199999999999999 0  -3.6 -9.199999999999999 0  -3.2 -9.199999999999999 0  -2.8 -9.199999999999999 0  -2.4 -9.199999999999999 0  -2 -9.199999999999999 0  -1.6 -9.199999999999999 0  -1.199999999999999 -9.199999999999999 0  -0.8000000000000007 -9.199999999999999 0  -0.4000000000000004 -9.199999999999999 0  0 -9.199999999999999 0  0.4000000000000004 -9.199999999999999 0  0.8000000000000007 -9.199999999999999 0  1.199999999999999 -9.199999999999999 0  1.6 -9.199999999999999 0  2 -9.199999999999999 0  2.4 -9.199999999999999 0  2.800000000000001 -9.199999999999999 0  3.199999999999999 -9.199999999999999 0  3.6 -9.199999999999999 0  4 -9.199999999999999 0  4.4 -9.199999999999999 0  4.800000000000001 -9.199999999999999 0  5.199999999999999 -9.199999999999999 0  5.6 -9.199999999999999 0  6 -9.199999999999999 0  6.399999999999999 -9.199999999999999 0  6.800000000000001 -9.199999999999999 0  7.199999999999999 -9.199999999999999 0  7.600000000000001 -9.199999999999999 0  8 -9.199999999999999 0  8.399999999999999 -9.199999999999999 0  8.800000000000001 -9.199999999999999 0  9.199999999999999 -9.199999999999999 0  9.600000000000001 -9.199999999999999 0  10 -9.199999999999999 0  -10 -8.800000000000001 0  -9.6 -8.800000000000001 0  -9.199999999999999 -8.800000000000001 0  -8.800000000000001 -8.800000000000001 0  -8.4 -8.800000000000001 0  -8 -8.800000000000001 0  -7.6 -8.800000000000001 0  -7.2 -8.800000000000001 0  -6.8 -8.800000000000001 0  -6.4 -8.800000000000001 0  -6 -8.800000000000001 0  -5.6 -8.800000000000001 0  -5.2 -8.800000000000001 0  -4.8 -8.800000000000001 0  -4.4 -8.800000000000001 0  -4 -8.800000000000001 0  -3.6 -8.800000000000001 0  -3.2 -8.800000000000001 0  -2.8 -8.800000000000001 0  -2.4 -8.800000000000001 0  -2 -8.800000000000001 0  -1.6 -8.800000000000001 0  -1.199999999999999 -8.800000000000001 0  -0.8000000000000007 -8.800000000000001 0  -0.4000000000000004 -8.800000000000001 0  0 -8.800000000000001 0  0.4000000000000004 -8.800000000000001 0  0.8000000000000007 -8.800000000000001 0  1.199999999999999 -8.800000000000001 0  1.6 -8.800000000000001 0  2 -8.800000000000001 0  2.4 -8.800000000000001 0  2.800000000000001 -8.800000000000001 0  3.199999999999999 -8.800000000000001 0  3.6 -8.800000000000001 0  4 -8.800000000000001 0  4.4 -8.800000000000001 0  4.800000000000001 -8.800000000000001 0  5.199999999999999 -8.800000000000001 0  5.6 -8.800000000000001 0  6 -8.800000000000001 0  6.399999999999999 -8.800000000000001 0  6.800000000000001 -8.800000000000001 0  7.199999999999999 -8.800000000000001 0  7.600000000000001 -8.800000000000001 0  8 -8.800000000000001 0  8.399999999999999 -8.800000000000001 0  8.800000000000001 -8.800000000000001 0  9.199999999999999 -8.800000000000001 0  9.600000000000001 -8.800000000000001 0  10 -8.800000000000001 0  -10 -8.4 0  -9.6 -8.4 0  -9.199999999999999 -8.4 0  -8.800000000000001 -8.4 0  -8.4 -8.4 0  -8 -8.4 0  -7.6 -8.4 0  -7.2 -8.4 0  -6.8 -8.4 0  -6.4 -8.4 0  -6 -8.4 0  -5.6 -8.4 0  -5.2 -8.4 0  -4.8 -8.4 0  -4.4 -8.4 0  -4 -8.4 0  -3.6 -8.4 0  -3.2 -8.4 0  -2.8 -8.4 0  -2.4 -8.4 0  -2 -8.4 0  -1.6 -8.4 0  -1.199999999999999 -8.4 0  -0.8000000000000007 -8.4 0  -0.4000000000000004 -8.4 0  0 -8.4 0  0.4000000000000004 -8.4 0  0.8000000000000007 -8.4 0  1.199999999999999 -8.4 0  1.6 -8.4 0  2 -8.4 0  2.4 -8.4 0  2.800000000000001 -8.4 0  3.199999999999999 -8.4 0  3.6 -8.4 0  4 -8.4 0  4.4 -8.4 0  4.800000000000001 -8.4 0  5.199999999999999 -8.4 0  5.6 -8.4 0  6 -8.4 0  6.399999999999999 -8.4 0  6.800000000000001 -8.4 0  7.199999999999999 -8.4 0  7.600000000000001 -8.4 0  8 -8.4 0  8.399999999999999 -8.4 0  8.800000000000001 -8.4 0  9.199999999999999 -8.4 0  9.600000000000001 -8.4 0  10 -8.4 0  -10 -8 0  -9.6 -8 0  -9.199999999999999 -8 0  -8.800000000000001 -8 0  -8.4 -8 0  -8 -8 0  -7.6 -8 0  -7.2 -8 0  -6.8 -8 0  -6.4 -8 0  -6 -8 0  -5.6 -8 0  -5.2 -8 0  -4.8 -8 0  -4.4 -8 0  -4 -8 0  -3.6 -8 0  -3.2 -8 0  -2.8 -8 0  -2.4 -8 0  -2 -8 0  -1.6 -8 0  -1.199999999999999 -8 0  -0.8000000000000007 -8 0  -0.4000000000000004 -8 0  0 -8 0  0.4000000000000004 -8 0  0.8000000000000007 -8 0  1.199999999999999 -8 0  1.6 -8 0  2 -8 0  2.4 -8 0  2.800000000000001 -8 0  3.199999999999999 -8 0  3.6 -8 0  4 -8 0  4.4 -8 0  4.800000000000001 -8 0  5.199999999999999 -8 0  5.6 -8 0  6 -8 0  6.399999999999999 -8 0  6.800000000000001 -8 0  7.199999999999999 -8 0  7.600000000000001 -8 0  8 -8 0  8.399999999999999 -8 0  8.800000000000001 -8 0  9.199999999999999 -8 0  9.600000000000001 -8 0  10 -8 0  -10 -7.6 0  -9.6 -7.6 0  -9.199999999999999 -7.6 0  -8.800000000000001 -7.6 0  -8.4 -7.6 0  -8 -7.6 0  -7.6 -7.6 0  -7.2 -7.6 0  -6.8 -7.6 0  -6.4 -7.6 0  -6 -7.6 0  -5.6 -7.6 0  -5.2 -7.6 0  -4.8 -7.6 0  -4.4 -7.6 0  -4 -7.6 0  -3.6 -7.6 0  -3.2 -7.6 0  -2.8 -7.6 0  -2.4 -7.6 0  -2 -7.6 0  -1.6 -7.6 0  -1.199999999999999 -7.6 0  -0.8000000000000007 -7.6 0  -0.4000000000000004 -7.6 0  0 -7.6 0  0.4000000000000004 -7.6 0  0.8000000000000007 -7.6 0  1.199999999999999 -7.6 0  1.6 -7.6 0  2 -7.6 0  2.4 -7.6 0  2.800000000000001 -7.6 0  3.199999999999999 -7.6 0  3.6 -7.6 0  4 -7.6 0  4.4 -7.6 0  4.800000000000001 -7.6 0  5.199999999999999 -7.6 0  5.6 -7.6 0  6 -7.6 0  6.399999999999999 -7.6 0  6.800000000000001 -7.6 0  7.199999999999999 -7.6 0  7.600000000000001 -7.6 0  8 -7.6 0  8.399999999999999 -7.6 0  8.800000000000001 -7.6 0  9.199999999999999 -7.6 0  9.600000000000001 -7.6 0  10 -7.6 0  -10 -7.2 0  -9.6 -7.2 0  -9.199999999999999 -7.2 0  -8.800000000000001 -7.2 0  -8.4 -7.2 0  -8 -7.2 0  -7.6 -7.2 0  -7.2 -7.2 0  -6.8 -7.2 0  -6.4 -7.2 0  -6 -7.2 0  -5.6 -7.2 0  -5.2 -7.2 0  -4.8 -7.2 0  -4.4 -7.2 0  -4 -7.2 0  -3.6 -7.2 0  -3.2 -7.2 0  -2.8 -7.2 0  -2.4 -7.2 0  -2 -7.2 0  -1.6 -7.2 0  -1.199999999999999 -7.2 0  -0.8000000000000007 -7.2 0  -0.4000000000000004 -7.2 0  0 -7.2 0  0.4000000000000004 -7.2 0  0.8000000000000007 -7.2 0  1.199999999999999 -7.2 0  1.6 -7.2 0  2 -7.2 0  2.4 -7.2 0  2.800000000000001 -7.2 0  3.199999999999999 -7.2 0  3.6 -7.2 0  4 -7.2 0  4.4 -7.2 0  4.800000000000001 -7.2 0  5.199999999999999 -7.2 0  5.6 -7.2 0  6 -7.2 0  6.399999999999999 -7.2 0  6.800000000000001 -7.2 0  7.199999999999999 -7.2 0  7.600000000000001 -7.2 0  8 -7.2 0  8.399999999999999 -7.2 0  8.800000000000001 -7.2 0  9.199999999999999 -7.2 0  9.600000000000001 -7.2 0  10 -7.2 0  -10 -6.8 0  -9.6 -6.8 0  -9.199999999999999 -6.8 0  -8.800000000000001 -6.8 0  -8.4 -6.8 0  -8 -6.8 0  -7.6 -6.8 0  -7.2 -6.8 0  -6.8 -6.8 0  -6.4 -6.8 0  -6 -6.8 0  -5.6 -6.8 0  -5.2 -6.8 0  -4.8 -6.8 0  -4.4 -6.8 0  -4 -6.8 0  -3.6 -6.8 0  -3.2 -6.8 0  -2.8 -6.8 0  -2.4 -6.8 0  -2 -6.8 0  -1.6 -6.8 0  -1.199999999999999 -6.8 0  -0.8000000000000007 -6.8 0  -0.4000000000000004 -6.8 0  0 -6.8 0  0.4000000000000004 -6.8 0  0.8000000000000007 -6.8 0  1.199999999999999 -6.8 0  1.6 -6.8 0  2 -6.8 0  2.4 -6.8 0  2.800000000000001 -6.8 0  3.199999999999999 -6.8 0  3.6 -6.8 0  4 -6.8 0  4.4 -6.8 0  4.800000000000001 -6.8 0  5.199999999999999 -6.8 0  5.6 -6.8 0  6 -6.8 0  6.399999999999999 -6.8 0  6.800000000000001 -6.8 0  7.199999999999999 -6.8 0  7.600000000000001 -6.8 0  8 -6.8 0  8.399999999999999 -6.8 0  8.800000000000001 -6.8 0  9.199999999999999 -6.8 0  9.600000000000001 -6.8 0  10 -6.8 0  -10 -6.4 0  -9.6 -6.4 0  -9.199999999999999 -6.4 0  -8.800000000000001 -6.4 0  -8.4 -6.4 0  -8 -6.4 0  -7.6 -6.4 0  -7.2 -6.4 0  -6.8 -6.4 0  -6.4 -6.4 0  -6 -6.4 0  -5.6 -6.4 0  -5.2 -6.4 0  -4.8 -6.4 0  -4.4 -6.4 0  -4 -6.4 0  -3.6 -6.4 0  -3.2 -6.4 0  -2.8 -6.4 0  -2.4 -6.4 0  -2 -6.4 0  -1.6 -6.4 0  -1.199999999999999 -6.4 0  -0.8000000000000007 -6.4 0  -0.4000000000000004 -6.4 0  0 -6.4 0
[...]
<PointData  Scalars="f_258"> 
<DataArray  type="Float64"  Name="f_258"  format="ascii">-4.9525934914398608e-05  3.3823703379316485e-04  -5.7240759242122745e-04  7.4219088736203129e-04  -8.3257999905016254e-04  8.3818736067213702e-04  -7.6506820132718869e-04  6.2996386278845189e-04  -4.5798215685260426e-04  2.7911616325690890e-04  -1.2408937556128156e-04  2.0100701730563293e-05  1.2944276107320350e-05  3.4803465612370937e-05  -1.6175937268302521e-04  3.5510426174699281e-04  -5.9253191705526417e-04  8.4530470013419201e-04  -1.0821963822417549e-03  1.2737791880621896e-03  -1.3964646412026930e-03  1.4357416858773117e-03  -1.3881661356441289e-03  1.2618274612702411e-03  -1.0752286596510292e-03  8.5473350356851424e-04  -6.3093279172558761e-04  4.3443009854257045e-04  -2.9162747698046406e-04  2.2109155998073412e-04  -2.3100056745322786e-04  3.1802383186760883e-04  -4.6778815287349524e-04  6.5686671473363283e-04  -8.5601658872526507e-04  1.0342188661381783e-03  -1.1629649072236643e-03  1.2201982892469712e-03  -1.1933694549627893e-03  1.0811822653081047e-03  -8.9379183152495101e-04  6.5142630358405122e-04  -3.8162237350305257e-04  1.1545519219316866e-04  1.1671806840297095e-04  -2.8941468950613317e-04  3.8550981563726522e-04  -3.9856201190033736e-04  3.3361063521191971e-04  -2.0577600629441320e-04  3.0344183940744326e-05  3.4110013683275308e-04  -1.6705604825562005e-03  2.8131776764349892e-03  -3.6455559992306539e-03  4.0873960838253599e-03  -4.1116112654589155e-03  3.7479985988474211e-03  -3.0790540119339611e-03  2.2285018524088158e-03  -1.3441378760316873e-03  5.7735654772002722e-04  -6.2185365682237328e-05  -1.0328480855227859e-04  -1.2948501382788069e-04  7.5269696178824341e-04  -1.7031965408139246e-03  2.8710834634829716e-03  -4.1147674254773479e-03  5.2803954452969983e-03  -6.2229752530601956e-03  6.8262855707722130e-03  -7.0188311898047090e-03  6.7836454842163125e-03  -6.1605903915113525e-03  5.2408372140082720e-03  -4.1542885346565984e-03  3.0516737603809656e-03  -2.0837843941998472e-03  1.3807090711153256e-03  -1.0339283864781654e-03  1.0837356237821923e-03  -1.5137158990401712e-03  2.2530440225734861e-03  -3.1862844404431847e-03  4.1693432936543220e-03  -5.0493752461638793e-03  5.6859029981129574e-03  -5.9702403399894766e-03  5.8405432472048210e-03  -5.2904156462163223e-03  4.3698842161519584e-03  -3.1786076139770801e-03  1.8522550969971624e-03  -5.4393034332197922e-04  -5.9680117896741304e-04  1.4443925684060627e-03  -1.9144816784518099e-03  1.9753747667662610e-03  -1.6522549515716487e-03  1.0235403852549257e-03  -2.1044898924718540e-04  -6.0595398739455024e-04  2.9531727932609881e-03  -4.9658357450449598e-03  6.4232422351289615e-03  -7.1810546276806688e-03  7.1906516623919236e-03  -6.5055377514337091e-03  5.2737522931891895e-03  -3.7172735998918160e-03  2.1012446629528423e-03  -6.9725887507389082e-04  -2.5423653530661395e-04  5.7724002720996347e-04  -1.8461086851775745e-04  -9.0976371166985603e-04  2.5927258621921937e-03  -4.6672875239411162e-03  6.8796278186456341e-03  -8.9539294771990904e-03  1.0630256612734817e-02  -1.1700257206403957e-02  1.2035773228727351e-02  -1.1606418138529485e-02  1.0483701017702919e-02  -8.8311295418319856e-03  6.8816551289554943e-03  -4.9055669718896617e-03  3.1732571263576211e-03  -1.9179852037458230e-03  1.3037712211240323e-03  -1.4028387805339695e-03  2.1857152958944439e-03  -3.5253526183265794e-03  5.2147002734830149e-03  -6.9953105864523505e-03  8.5930354487841146e-03  -9.7558976757438874e-03  1.0288920336940562e-02  -1.0081116395046922e-02  9.1209207353792066e-03  -7.4979385143949468e-03  5.3907684341656980e-03  -3.0425774908155170e-03  7.2779077328148601e-04  1.2855163303058350e-03  -2.7723442097564352e-03  3.5815556046552280e-03  -3.6564838983041375e-03  3.0425318236391450e-03  -1.8807464828650155e-03  3.8836302456033350e-04  8.5239383391576111e-04  -4.1521665184488920e-03  6.9705792368304920e-03  -8.9909802186149031e-03  1.0006078617696148e-02  -9.9461941358515247e-03  8.8885529125726954e-03  -7.0463712486083050e-03  4.7392231393166622e-03  -2.3487683764070802e-03  2.6593774702054628e-04  1.1631500156480451e-03  -1.6850896975734617e-03  1.1743109502844169e-03  3.4941875551101664e-04  -2.7235211489737231e-03  5.6648168631012116e-03  -8.8083594999324322e-03  1.1757545935959205e-02  -1.4138601560214259e-02  1.5651936501123686e-02  -1.6113299811713062e-02  1.5479063687469645e-02  -1.3852155573177103e-02  1.1467821396644063e-02  -8.6611810485634749e-03  5.8210449969712860e-03  -3.3363531684079298e-03  1.5426133325308425e-03  -6.7571622552475331e-04  8.3948855385226266e-04  -1.9914527723884764e-03  3.9487547760274980e-03  -6.4134427566397909e-03  9.0136150993640196e-03  -1.1354769418006217e-02  1.3074279721866484e-02  -1.3891497796777921e-02  1.3646577522807780e-02  -1.2322674035581979e-02  1.0048459446320386e-02  -7.0806078657291490e-03  3.7686613571681609e-03  -5.0711514092568978e-04  -2.3186793420125521e-03  4.3853435404935786e-03  -5.4757580860214546e-03  5.5087088744946609e-03  -4.5498141263702026e-03  2.8022337020870381e-03  -5.7842857125406421e-04  -1.0770380629303499e-03  5.2445661584112546e-03  -8.7862882375466366e-03  1.1290882239129168e-02  -1.2489207231816710e-02  1.2291094841512267e-02  -1.0797473854211202e-02  8.2861781397229588e-03  -5.1733970357438252e-03  1.9560782408792154e-03  8.5678349852660895e-04  -2.8145074977411616e-03  3.5870461448281642e-03  -3.0106775037794698e-03  1.1107771966955755e-03  1.9014677500517208e-03  -5.6579512902798440e-03  9.6841682496516639e-03  -1.3464404109854390e-02  1.6512616447384842e-02  -1.8439245804794495e-02  1.9004754355111106e-02  -1.8152518697935993e-02  1.6016546700735476e-02  -1.2902955828012350e-02  9.2477642655856597e-03  -5.5568086321101957e-03  2.3360637655188798e-03  -2.1961982492495294e-05  -1.0786908055787818e-03  8.3092661230495517e-04  7.0985926341818643e-04  -3.3056203648091803e-03  6.5685461511544047e-03  -1.0014593952004736e-02  1.3130292165509809e-02  -1.5443613089832949e-02  1.6589153188073694e-02  -1.6358642585518651e-02  1.4729826212721972e-02  -1.1869737913176972e-02  8.1119157502600892e-03  -3.9106958822382552e-03  -2.2112061676382740e-04  3.7826435825795320e-03  -6.3536201981716361e-03  7.6520473896235664e-03  -7.5727365627633074e-03  6.2015204564319793e-03  -3.8031444277864621e-03  7.8449942787677798e-04  1.2779096529953820e-03  -6.2201320612582421e-03  1.0394971512962455e-02  -1.3298244568854945e-02  1.4600279611284685e-02  -1.4191063588129495e-02  1.2195128314634792e-02  -8.9541330839089973e-03  4.9795465418776483e-03  -8.8194694535921288e-04  -2.7133204408809116e-03  5.2525111413284625e-03  -6.3299778641399407e-03  5.7442585156926938e-03  -3.5260297924924965e-03  -6.5924594572639063e-05  4.5801764858392534e-03  -9.4346629134314190e-03  1.3996702602234201e-02  -1.7669998905110659e-02  1.9976646415181456e-02  -2.0622846605020943e-02  1.9539281608101488e-02  -1.6890585639772197e-02  1.3052609804897239e-02  -8.5606119372853631e-03  4.0355076652204705e-03  -9.8340558575102456e-05  -2.7152482172908697e-03  4.0287703108838717e-03  -3.6767027973071062e-03  1.7272267862625918e-03  1.5272396359240262e-03  -5.6104098921030254e-03  9.9278383486241500e-03  -1.3848919834526692e-02  1.6793884622124732e-02  -1.8313806134125959e-02  1.8152600977538472e-02  -1.6282481126775317e-02  1.2907974566403801e-02  -8.4379598621917851e-03  3.4295656518240317e-03  1.4883388416328288e-03  -5.7015252172106399e-03  8.6947625319213229e-03  -1.0122531399886040e-02  9.8563567702516872e-03  -8.0022405505642703e-03  4.8857922128751593e-03  -1.0071027217138512e-03  -1.4557051607318025e-03  7.0822993268148211e-03  -1.1803275011778356e-02  1.5023790190675989e-02  -1.6355177892888536e-02  1.5668272126725641e-02  -1.3110991204580475e-02  9.0877584122910741e-03  -4.2035965915192611e-03  -8.1940179209988426e-04  5.2417231424508621e-03  -8.4084739857906068e-03  9.8397597027130249e-03  -9.2969518361291550e-03  6.8157160575580012e-03  -2.7012511033069134e-03  -2.5136061330605177e-03  8.1416395234438013e-03  -1.3435786878117025e-02  1.7691927363422823e-02  -2.0345766225995401e-02  2.1050472843187666e-02  -1.9724378993486898e-02  1.6562167936573051e-02  -1.2008013405615305e-02  6.6943683698421456e-03  -1.3548345797810930e-03  -3.2768861749231095e-03  6.5680411967502742e-03  -8.0739584907136945e-03  7.5992599245320522e-03  -5.2247249090440649e-03  1.2961047339493917e-03  3.6235715662881148e-03  -8.8316304175504214e-03  1.3582632897986689e-02  -1.7191155954704919e-02  1.9126318724697028e-02  -1.9085033972806403e-02  1.7033894905866976e-02  -1.3213927557784336e-02  8.1075535851700721e-03  -2.3723132012364633e-03  -3.2495237976929688e-03  8.0330099562039414e-03  -1.1370179709579580e-02  1.2853590733290898e-02  -1.2332241186522952e-02  9.9321614858369680e-03  -6.0388444169675965e-03  1.2439337880915547e-03  1.6136928206097350e-03  -7.8472190845331122e-03  1.3040674602665914e-02  -1.6511068285122613e-02  1.7812447808835979e-02  -1.6797201046779370e-02  1.3636266647137655e-02  -8.7954702616999010e-03  2.9712465648186839e-03  3.0053988332426648e-03  -8.2834591738686590e-03  1.2109247313387307e-02  -1.3930307917309835e-02  1.3471608405644365e-02  -1.0773514167906038e-02  6.1863171961737875e-03  -3.2207140464942383e-04  -6.0296317538368832e-03  1.2010347070533606e-02  -1.6810949543844322e-02  1.9783022151133017e-02  -2.0528115725695930e-02  1.8952586974810535e-02  -1.5280461720472387e-02  1.0022551782270931e-02  -3.9060792703181834e-03  -2.2254984903253023e-03  7.5286658196668651e-03  -1.1276025766543069e-02  1.2956475867866444e-02  -1.2345584986275995e-02  9.5364779937377447e-03  -4.9269745289438225e-03  -8.3524660920920076e-04  6.9419045226045565e-03  -1.2535500777825906e-02  1.6827489782723255e-02  -1.9206958608205781e-02  1.9324847046903616e-02  -1.7142107614514235e-02  1.2935171889027739e-02  -7.2579699324415159e-03  8.6573366183780183e-04  5.3889213327125898e-03  -1.0673322820558492e-02  1.4289318256439688e-02  -1.5769319677504418e-02  1.4940588806361382e-02  -1.1948908327790057e-02  7.2383792352690730e-03  -1.4901274950435835e-03  -1.7571670585612340e-03  8.5410296213618096e-03  -1.4154553665846982e-02  1.7829364351692807e-02  -1.9064070204045633e-02  1.7693304517911689e-02  -1.3910484835539583e-02  8.2411554290645669e-03  -1.4705845226470379e-03  -5.4644111925832616e-03  1.1604515079317925e-02  -1.6100057549091051e-02  1.8328060248412104e-02  -1.7978056357010441e-02  1.5094866536929543e-02  -1.0072438759489336e-02  3.5996004342914042e-03  3.4348054096872823e-03  -1.0064333926854128e-02  1.5378041692475242e-02  -1.8645946524360146e-02  1.9419563794104852e-02  -1.7593671951262969e-02  1.3420800046919831e-02  -7.4764418465781248e-03  5.7978775444617416e-04  6.3191075082802721e-03  -1.2270180581291545e-02  1.6454215184305364e-02  -1.8295674553006923e-02  1.7541969702259370e-02  -1.4298245564405702e-02  9.0128937749997789e-03  -2.4157875055441820e-03  -4.5822544469434658e-03  1.1014927043494872e-02  -1.5993541765017924e-02  1.8829439900530241e-02  -1.9128855804367913e-02  1.6847164156237764e-02  -1.2295039457646857e-02  6.0956793404338136e-03  9.0101655604546665e-04  -7.7354916750616808e-03  1.3470680532221330e-02  -1.7321058326686484e-02  1.8760817629261430e-02  -1.7596272492175182e-02  1.3992517436910244e-02  -8.4506695245925422e-03  1.7388283559843383e-03  1.8926167732108016e-03  -9.1957539226537859e-03  1.5202836498098908e-02  -1.9063096033126462e-02  2.0221658408239397e-02  -1.8496059077782536e-02  1.4101463732697645e-02  -7.6211200542669289e-03  -7.3890053890445070e-05  7.9445451843172359e-03  -1.4926912742378883e-02  2.0078611209028780e-02  -2.2708533739180657e-02  2.2471965970179475e-02  -1.9417997324592384e-02  1.3982695901249915e-02  -6.9289872570973271e-03  -7.5848193082206665e-04  8.0090142242729111e-03  -1.3813379138232886e-02  1.7362859775322204e-02  -1.8160676730915787e-02  1.6090442227925411e-02  -1.1432215877994201e-02  4.8239505432384876e-03  2.8263615530671115e-03  -1.0465742025645165e-02  1.7041254752965841e-02  -2.1645034148488469e-02  2.3639337897800018e-02  -2.2744400071648064e-02  1.9076984172556054e-02  -1.3134325957096878e-02  5.7256775612512384e-03  2.1391184727749053e-03  -9.3886782231391921e-03  1.5037596808666811e-02  -1.8322121756189035e-02  1.8805292629891723e-02  -1.6437065797938386e-02  1.1561143325426296e-02  -4.8675656570833269e-03  -2.7024020293013643e-03  1.0085989110298947e-02  -1.6245377350808995e-02  2.0310724694381461e-02  -2.1700055387049950e-02  2.0199503092671937e-02  -1.5992854427416839e-02  9.6363234653191413e-03  -1.9820314443389549e-03  -2.0267306744928826e-03  9.8443979371472083e-03  -1.6245194096227364e-02  2.0299157089000555e-02  -2.1399986072120361e-02  1.9348735292703298e-02  -1.4381399001127768e-02  7.1365871619132196e-03  1.4322566464586145e-03  -1.0188005236072691e-02  1.7966302509147044e-02  -2.3735774292590512e-02  2.6739929379781133e-02  -2.6601206721322906e-02  2.3372838460338892e-02  -1.7531386035050518e-02  9.9109778930212538e-03  -1.5883070238938751e-03  -6.2657714605436256e-03  1.2547602182205469e-02  -1.6372825354344155e-02  1.7198257495197867e-02  -1.4896769551577418e-02  9.7748489033343405e-03  -2.5304261559651472e-03  -5.8432247382053590e-03  1.4194276888058081e-02  -2.1370990737245001e-02  2.6380354014498016e-02  -2.8524871169609115e-02  2.7498661629295526e-02  -2.3429630725967099e-02  1.6861904760599979e-02  -8.6809492840671052e-03  -8.3158605064357866e-06  8.0336172879886605e-03  -1.4316695445067217e-02  1.8021713156094930e-02  -1.8670264788896395e-02  1.6207145776208152e-02  -1.1007824246396557e-02  3.8265861699638562e-03  4.3075032475138990e-03  -1.2232491663649361e-02  1.8813741181427483e-02  -2.3100373524323394e-02  2.4456410284002635e-02  -2.2648545048421037e-02  1.7878457517609553e-02  -1.0755218185176538e-02  2.2115837971202713e-03  2.1653782204091960e-03  -1.0515929066189476e-02  1.7334036924921935e-02  -2.1613955958691877e-02  2.2700117990786549e-02  -2.0377682214848494e-02  1.4902378530235225e-02  -6.9655329971310027e-03  -2.4009084080556823e-03  1.1966277218920391e-02  -2.0470457863216284e-02  2.6797226861453079e-02  -3.0127781933722543e-02  3.0053315613909830e-02  -2.6631128899654070e-02  2.0376556918721759e-02  -1.2191819428735170e-02  3.2415965379299413e-03  5.2075322468541803e-03  -1.1961670331040595e-02  1.6064161219971240e-02  -1.6927454961945834e-02  1.4414120921197510e-02  -8.8558483040421347e-03  1.0078171400372210e-03  8.0552758109087158e-03  -1.7087215583499241e-02  2.4841907576047022e-02  -3.0245015671217613e-02  3.2541959420850017e-02  -3.1401885901792638e-02  2.6963295596585245e-02  -1.9815037828846378e-02  1.0915293052476615e-02  -1.4597005747616395e-03  -7.2832053443933360e-03  1.4146585378292043e-02  -1.8225864488388085e-02  1.9003165400366898e-02  -1.6418468044514946e-02  1.0877694522166642e-02  -3.1966067202603499e-03  -5.5117554629065075e-03  1.3990590872116151e-02  -2.1012663484608039e-02  2.5549564589322633e-02  -2.6913596646693759e-02  2.4852735654359134e-02  -1.9585591512505132e-02  1.1771550229116422e-02  -2.4202094723202020e-03  -2.3127071418864234e-03  1.1230829209075414e-02  -1.8506538591158656e-02  2.3061937811601353e-02  -2.4194471252724305e-02  2.1673981554824848e-02  -1.5774697007899362e-02  7.2377430323387164e-03  2.8306599284685270e-03  -1.3111291556180705e-02  2.2253372178144749e-02  -2.9060359099354699e-02  3.2654509192807456e-02  -3.2597542775567298e-02  2.8950790111843649e-02  -2.2266537164458408e-02  1.3511763381791105e-02  -3.9347761990780527e-03  -5.1068880476261048e-03  1.2333592207337324e-02  -1.6719980868877066e-02  1.7636322942139075e-02  -1.4935346100298409e-02  8.9726026209589454e-03  -5.5756123884965765e-04  -9.1578388991997838e-03  1.8837822406562676e-02  -2.7146750690922497e-02  3.2933094483505405e-02  -3.5388066492914719e-02  3.4157064919335588e-02  -2.9388578049360972e-02  2.1713813844955542e-02  -1.2159859908122652e-02  2.0083342934878543e-03  7.3810046535845841e-03  -1.4757394968442196e-02  1.9151179686125463e-02  -2.0007182776751720e-02  1.7260982648789301e-02  -1.1347578482574729e-02  3.1412565416073326e-03  6.1650602260982937e-03  -1.5224360705783462e-02  2.2721327345056976e-02  -2.7553761607912806e-02  2.8984663637838862e-02  -2.6744018513780495e-02  2.1066268588874341e-02  -1.2658309617261585e-02  2.6024176115687484e-03  2.4704823004655426e-03  -1.1997836951902012e-02  1.9778792142366740e-02  -2.4667174658892701e-02  2.5915868150694445e-02  -2.3280001995818235e-02  1.7050960189905959e-02  -8.0165249637108010e-03  -2.6473563788048083e-03  1.3538275051896614e-02  -2.3220263718900479e-02  3.0421330420402411e-02  -3.4208417270569939e-02  3.4115687035355863e-02  -3.0208469023653917e-02  2.3074057585266469e-02  -1.3740631375627092e-02  3.5354617229332230e-03  6.0980596433907446e-03  -1.3799371324362550e-02  1.8478268531709807e-02  -1.9465175620027558e-02  1.6603466751271154e-02  -1.0271118594929258e-02  1.3287124454433995e-03  8.9990525911628847e-03  -1.9292015807066323e-02  2.8130150855497988e-02  -3.4289161220960387e-02  3.6909134953940236e-02  -3.5613029017489875e-02  3.0558663713786776e-02  -2.2417065523205000e-02  1.2280140981702879e-02  -1.5103976910415570e-03  -8.4465894082849501e-03  1.6261137181973567e-02  -2.0902435925377810e-02  2.1780351249943927e-02  -1.8826515916961016e-02  1.2503543230252736e-02  -3.7410937616308539e-03  -6.1923979519351510e-03  1.5864668239942287e-02  -2.3877143835674491e-02  2.9057829958441160e-02  -3.0622998648301866e-02  2.8285406312719516e-02  -2.2294134184116944e-02  1.3400563228100583e-02  -2.7551688477294349e-03  -2.6377573190019322e-03  1.2812329430217984e-02  -2.1142906759482917e-02  2.6419185396735399e-02  -2.7852092376142144e-02  2.5182709032439261e-02  -1.8718170966328079e-02  9.2895990361806929e-03  1.8621451994876848e-03  -1.3257145095812321e-02  2.3380047214574949e-02  -3.0888567925900379e-02  3.4798170635236193e-02  -3.4617478037628428e-02  3.0415769241486756e-02  -2.2813265811532455e-02  1.2895545344136967e-02  -2.0638713888898094e-03  -8.1579449994233586e-03  1.6333549767395737e-02  -2.1311991125945250e-02  2.2386341295909759e-02  -1.9391146718213886e-02  1.2725284180427565e-02  -3.2970745299541089e-03  -7.6007864959366477e-03  1.8469254149302821e-02  -2.7809397075238839e-02  3.4328859308546344e-02  -3.7119884931701590e-02  3.5784385201410890e-02  -3.0488821963123754e-02  2.1941347813586563e-02  -1.1294351334257824e-02  -1.4170060397106427e-05  1.0458561635201216e-02  -1.8635522919906229e-02  2.3457254047621320e-02  -2.4301134496824927e-02  2.1095318912435889e-02  -1.4328461139241626e-02  4.9822277979247650e-03  5.6041027081806397e-03  -1.5918305658093990e-02  2.4483704414031707e-02  -3.0062776128790564e-02  3.1827824442766224e-02  -2.9475210832214847e-02  2.3267410160332905e-02  -1.3997097040660191e-02  2.8782086361471395e-03  2.8109245546537711e-03  -1.3656568403745066e-02  2.2567447441495570e-02  -2.8273564869599345e-02  2.9946701863745151e-02  -2.7314655087055918e-02  2.0698889814832779e-02  -1.0970421920345063e-02  -5.6999533794274042e-04  1.2370877953297667e-02  -2.2843556484381803e-02  3.0580848117120338e-02  -3.4550737400359403e-02  3.4238389719475133e-02  -2.9716937898831557e-02  2.1637292681752376e-02  -1.1138380994139749e-02  -3.0982431545786355e-04  1.1108862675882070e-02  -1.9752032366657016e-02  2.5031989639909557e-02  -2.6207106584096605e-02  2.3103674308532326e-02  -1.6139874351761764e-02  6.2682164616668992e-03  5.1556290936734432e-03  -1.6559538484544778e-02  2.6371464656966090e-02  -3.3235967405218614e-02  3.6200919544836140e-02  -3.4848673276018621e-02  2.9353620535883980e-02  -2.0458219155630064e-02  9.3707866728125425e-03  2.4008611263017696e-03  -1.3257013507362303e-02  2.1726316130861067e-02  -2.6668334591541311e-02  2.7430530571869595e-02  -2.3938029992065176e-02  1.6703819424486656e-02  -6.7579668171022702e-03  -4.4943842619690113e-03  1.5466687309492818e-02  -2.4609656607282416e-02  3.0624803948109330e-02  -3.2643436477721541e-02  3.0346460936701