<?xml version="1.0"?>
<VTKFile type="UnstructuredGrid"  version="0.1"  >
<UnstructuredGrid>
<Piece  NumberOfPoints="2601" NumberOfCells="5000">
<Points>
<DataArray  type="Float64"  NumberOfComponents="3"  format="ascii">-10 -10 0  -9.6 -10 0  -9.199999999999999 -10 0  -8.800000000000001 -10 0  -8.4 -10 0  -8 -10 0  -7.6 -10 0  -7.2 -10 0  -6.8 -10 0  -6.4 -10 0  -6 -10 0  -5.6 -10 0  -5.2 -10 0  -4.8 -10 0  -4.4 -10 0  -4 -10 0  -3.6 -10 0  -3.2 -10 0  -2.8 -10 0  -2.4 -10 0  -2 -10 0  -1.6 -10 0  -1.199999999999999 -10 0  -0.8000000000000007 -10 0  -0.4000000000000004 -10 0  0 -10 0  0.4000000000000004 -10 0  0.8000000000000007 -10 0  1.199999999999999 -10 0  1.6 -10 0  2 -10 0  2.4 -10 0  2.800000000000001 -10 0  3.199999999999999 -10 0  3.6 -10 0  4 -10 0  4.4 -10 0  4.800000000000001 -10 0  5.199999999999999 -10 0  5.6 -10 0  6 -10 0  6.399999999999999 -10 0  6.800000000000001 -10 0  7.199999999999999 -10 0  7.600000000000001 -10 0  8 -10 0  8.399999999999999 -10 0  8.800000000000001 -10 0  9.199999999999999 -10 0  9.600000000000001 -10 0  10 -10 0  -10 -9.6 0  -9.6 -9.6 0  -9.199999999999999 -9.6 0  -8.800000000000001 -9.6 0  -8.4 -9.6 0  -8 -9.6 0  -7.6 -9.6 0  -7.2 -9.6 0  -6.8 -9.6 0  -6.4 -9.6 0  -6 -9.6 0  -5.6 -9.6 0  -5.2 -9.6 0  -4.8 -9.6 0  -4.4 -9.6 0  -4 -9.6 0  -3.6 -9.6 0  -3.2 -9.6 0  -2.8 -9.6 0  -2.4 -9.6 0  -2 -9.6 0  -1.6 -9.6 0  -1.199999999999999 -9.6 0  -0.8000000000000007 -9.6 0  -0.4000000000000004 -9.6 0  0 -9.6 0  0.4000000000000004 -9.6 0  0.8000000000000007 -9.6 0  1.199999999999999 -9.6 0  1.6 -9.6 0  2 -9.6 0  2.4 -9.6 0  2.800000000000001 -9.6 0  3.199999999999999 -9.6 0  3.6 -9.6 0  4 -9.6 0  4.4 -9.6 0  4.800000000000001 -9.6 0  5.199999999999999 -9.6 0  5.6 -9.6 0  6 -9.6 0  6.399999999999999 -9.6 0  6.800000000000001 -9.6 0  7.199999999999999 -9.6 0  7.600000000000001 -9.6 0  8 -9.6 0  8.399999999999999 -9.6 0  8.800000000000001 -9.6 0  9.199999999999999 -9.6 0  9.600000000000001 -9.6 0  10 -9.6 0  -10 -9.199999999999999 0  -9.6 -9.199999999999999 0  -9.199999999999999 -9.199999999999999 0  -8.800000000000001 -9.199999999999999 0  -8.4 -9.199999999999999 0  -8 -9.199999999999999 0  -7.6 -9.199999999999999 0  -7.2 -9.199999999999999 0  -6.8 -9.199999999999999 0  -6.4 -9.199999999999999 0  -6 -9.199999999999999 0  -5.6 -9.199999999999999 0  -5.2 -9.199999999999999 0  -4.8 -9.199999999999999 0  -4.4 -9.199999999999999 0  -4 -9.199999999999999 0  -3.6 -9.199999999999999 0  -3.2 -9.199999999999999 0  -2.8 -9.199999999999999 0  -2.4 -9.199999999999999 0  -2 -9.199999999999999 0  -1.6 -9.199999999999999 0  -1.199999999999999 -9.199999999999999 0  -0.8000000000000007 -9.199999999999999 0  -0.4000000000000004 -9.199999999999999 0  0 -9.199999999999999 0  0.4000000000000004 -9.199999999999999 0  0.8000000000000007 -9.199999999999999 0  1.199999999999999 -9.199999999999999 0  1.6 -9.199999999999999 0  2 -9.199999999999999 0  2.4 -9.199999999999999 0  2.800000000000001 -9.199999999999999 0  3.199999999999999 -9.199999999999999 0  3.6 -9.199999999999999 0  4 -9.199999999999999 0  4.4 -9.199999999999999 0  4.800000000000001 -9.199999999999999 0  5.199999999999999 -9.199999999999999 0  5.6 -9.199999999999999 0  6 -9.199999999999999 0  6.399999999999999 -9.199999999999999 0  6.800000000000001 -9.199999999999999 0  7.199999999999999 -9.199999999999999 0  7.600000000000001 -9.199999999999999 0  8 -9.199999999999999 0  8.399999999999999 -9.199999999999999 0  8.800000000000001 -9.199999999999999 0  9.199999999999999 -9.199999999999999 0  9.600000000000001 -9.199999999999999 0  10 -9.199999999999999 0  -10 -8.800000000000001 0  -9.6 -8.800000000000001 0  -9.199999999999999 -8.800000000000001 0  -8.800000000000001 -8.800000000000001 0  -8.4 -8.800000000000001 0  -8 -8.800000000000001 0  -7.6 -8.800000000000001 0  -7.2 -8.800000000000001 0  -6.8 -8.800000000000001 0  -6.4 -8.800000000000001 0  -6 -8.800000000000001 0  -5.6 -8.800000000000001 0  -5.2 -8.800000000000001 0  -4.8 -8.800000000000001 0  -4.4 -8.800000000000001 0  -4 -8.800000000000001 0  -3.6 -8.800000000000001 0  -3.2 -8.800000000000001 0  -2.8 -8.800000000000001 0  -2.4 -8.800000000000001 0  -2 -8.800000000000001 0  -1.6 -8.800000000000001 0  -1.199999999999999 -8.800000000000001 0  -0.8000000000000007 -8.800000000000001 0  -0.4000000000000004 -8.800000000000001 0  0 -8.800000000000001 0  0.4000000000000004 -8.800000000000001 0  0.8000000000000007 -8.800000000000001 0  1.199999999999999 -8.800000000000001 0  1.6 -8.800000000000001 0  2 -8.800000000000001 0  2.4 -8.800000000000001 0  2.800000000000001 -8.800000000000001 0  3.199999999999999 -8.800000000000001 0  3.6 -8.800000000000001 0  4 -8.800000000000001 0  4.4 -8.800000000000001 0  4.800000000000001 -8.800000000000001 0  5.199999999999999 -8.800000000000001 0  5.6 -8.800000000000001 0  6 -8.800000000000001 0  6.399999999999999 -8.800000000000001 0  6.800000000000001 -8.800000000000001 0  7.199999999999999 -8.800000000000001 0  7.600000000000001 -8.800000000000001 0  8 -8.800000000000001 0  8.399999999999999 -8.800000000000001 0  8.800000000000001 -8.800000000000001 0  9.199999999999999 -8.800000000000001 0  9.600000000000001 -8.800000000000001 0  10 -8.800000000000001 0  -10 -8.4 0  -9.6 -8.4 0  -9.199999999999999 -8.4 0  -8.800000000000001 -8.4 0  -8.4 -8.4 0  -8 -8.4 0  -7.6 -8.4 0  -7.2 -8.4 0  -6.8 -8.4 0  -6.4 -8.4 0  -6 -8.4 0  -5.6 -8.4 0  -5.2 -8.4 0  -4.8 -8.4 0  -4.4 -8.4 0  -4 -8.4 0  -3.6 -8.4 0  -3.2 -8.4 0  -2.8 -8.4 0  -2.4 -8.4 0  -2 -8.4 0  -1.6 -8.4 0  -1.199999999999999 -8.4 0  -0.8000000000000007 -8.4 0  -0.4000000000000004 -8.4 0  0 -8.4 0  0.4000000000000004 -8.4 0  0.8000000000000007 -8.4 0  1.199999999999999 -8.4 0  1.6 -8.4 0  2 -8.4 0  2.4 -8.4 0  2.800000000000001 -8.4 0  3.199999999999999 -8.4 0  3.6 -8.4 0  4 -8.4 0  4.4 -8.4 0  4.800000000000001 -8.4 0  5.199999999999999 -8.4 0  5.6 -8.4 0  6 -8.4 0  6.399999999999999 -8.4 0  6.800000000000001 -8.4 0  7.199999999999999 -8.4 0  7.600000000000001 -8.4 0  8 -8.4 0  8.399999999999999 -8.4 0  8.800000000000001 -8.4 0  9.199999999999999 -8.4 0  9.600000000000001 -8.4 0  10 -8.4 0  -10 -8 0  -9.6 -8 0  -9.199999999999999 -8 0  -8.800000000000001 -8 0  -8.4 -8 0  -8 -8 0  -7.6 -8 0  -7.2 -8 0  -6.8 -8 0  -6.4 -8 0  -6 -8 0  -5.6 -8 0  -5.2 -8 0  -4.8 -8 0  -4.4 -8 0  -4 -8 0  -3.6 -8 0  -3.2 -8 0  -2.8 -8 0  -2.4 -8 0  -2 -8 0  -1.6 -8 0  -1.199999999999999 -8 0  -0.8000000000000007 -8 0  -0.4000000000000004 -8 0  0 -8 0  0.4000000000000004 -8 0  0.8000000000000007 -8 0  1.199999999999999 -8 0  1.6 -8 0  2 -8 0  2.4 -8 0  2.800000000000001 -8 0  3.199999999999999 -8 0  3.6 -8 0  4 -8 0  4.4 -8 0  4.800000000000001 -8 0  5.199999999999999 -8 0  5.6 -8 0  6 -8 0  6.399999999999999 -8 0  6.800000000000001 -8 0  7.199999999999999 -8 0  7.600000000000001 -8 0  8 -8 0  8.399999999999999 -8 0  8.800000000000001 -8 0  9.199999999999999 -8 0  9.600000000000001 -8 0  10 -8 0  -10 -7.6 0  -9.6 -7.6 0  -9.199999999999999 -7.6 0  -8.800000000000001 -7.6 0  -8.4 -7.6 0  -8 -7.6 0  -7.6 -7.6 0  -7.2 -7.6 0  -6.8 -7.6 0  -6.4 -7.6 0  -6 -7.6 0  -5.6 -7.6 0  -5.2 -7.6 0  -4.8 -7.6 0  -4.4 -7.6 0  -4 -7.6 0  -3.6 -7.6 0  -3.2 -7.6 0  -2.8 -7.6 0  -2.4 -7.6 0  -2 -7.6 0  -1.6 -7.6 0  -1.199999999999999 -7.6 0  -0.8000000000000007 -7.6 0  -0.4000000000000004 -7.6 0  0 -7.6 0  0.4000000000000004 -7.6 0  0.8000000000000007 -7.6 0  1.199999999999999 -7.6 0  1.6 -7.6 0  2 -7.6 0  2.4 -7.6 0  2.800000000000001 -7.6 0  3.199999999999999 -7.6 0  3.6 -7.6 0  4 -7.6 0  4.4 -7.6 0  4.800000000000001 -7.6 0  5.199999999999999 -7.6 0  5.6 -7.6 0  6 -7.6 0  6.399999999999999 -7.6 0  6.800000000000001 -7.6 0  7.199999999999999 -7.6 0  7.600000000000001 -7.6 0  8 -7.6 0  8.399999999999999 -7.6 0  8.800000000000001 -7.6 0  9.199999999999999 -7.6 0  9.600000000000001 -7.6 0  10 -7.6 0  -10 -7.2 0  -9.6 -7.2 0  -9.199999999999999 -7.2 0  -8.800000000000001 -7.2 0  -8.4 -7.2 0  -8 -7.2 0  -7.6 -7.2 0  -7.2 -7.2 0  -6.8 -7.2 0  -6.4 -7.2 0  -6 -7.2 0  -5.6 -7.2 0  -5.2 -7.2 0  -4.8 -7.2 0  -4.4 -7.2 0  -4 -7.2 0  -3.6 -7.2 0  -3.2 -7.2 0  -2.8 -7.2 0  -2.4 -7.2 0  -2 -7.2 0  -1.6 -7.2 0  -1.199999999999999 -7.2 0  -0.8000000000000007 -7.2 0  -0.4000000000000004 -7.2 0  0 -7.2 0  0.4000000000000004 -7.2 0  0.8000000000000007 -7.2 0  1.199999999999999 -7.2 0  1.6 -7.2 0  2 -7.2 0  2.4 -7.2 0  2.800000000000001 -7.2 0  3.199999999999999 -7.2 0  3.6 -7.2 0  4 -7.2 0  4.4 -7.2 0  4.800000000000001 -7.2 0  5.199999999999999 -7.2 0  5.6 -7.2 0  6 -7.2 0  6.399999999999999 -7.2 0  6.800000000000001 -7.2 0  7.199999999999999 -7.2 0  7.600000000000001 -7.2 0  8 -7.2 0  8.399999999999999 -7.2 0  8.800000000000001 -7.2 0  9.199999999999999 -7.2 0  9.600000000000001 -7.2 0  10 -7.2 0  -10 -6.8 0  -9.6 -6.8 0  -9.199999999999999 -6.8 0  -8.800000000000001 -6.8 0  -8.4 -6.8 0  -8 -6.8 0  -7.6 -6.8 0  -7.2 -6.8 0  -6.8 -6.8 0  -6.4 -6.8 0  -6 -6.8 0  -5.6 -6.8 0  -5.2 -6.8 0  -4.8 -6.8 0  -4.4 -6.8 0  -4 -6.8 0  -3.6 -6.8 0  -3.2 -6.8 0  -2.8 -6.8 0  -2.4 -6.8 0  -2 -6.8 0  -1.6 -6.8 0  -1.199999999999999 -6.8 0  -0.8000000000000007 -6.8 0  -0.4000000000000004 -6.8 0  0 -6.8 0  0.4000000000000004 -6.8 0  0.8000000000000007 -6.8 0  1.199999999999999 -6.8 0  1.6 -6.8 0  2 -6.8 0  2.4 -6.8 0  2.800000000000001 -6.8 0  3.199999999999999 -6.8 0  3.6 -6.8 0  4 -6.8 0  4.4 -6.8 0  4.800000000000001 -6.8 0  5.199999999999999 -6.8 0  5.6 -6.8 0  6 -6.8 0  6.399999999999999 -6.8 0  6.800000000000001 -6.8 0  7.199999999999999 -6.8 0  7.600000000000001 -6.8 0  8 -6.8 0  8.399999999999999 -6.8 0  8.800000000000001 -6.8 0  9.199999999999999 -6.8 0  9.600000000000001 -6.8 0  10 -6.8 0  -10 -6.4 0  -9.6 -6.4 0  -9.199999999999999 -6.4 0  -8.800000000000001 -6.4 0  -8.4 -6.4 0  -8 -6.4 0  -7.6 -6.4 0  -7.2 -6.4 0  -6.8 -6.4 0  -6.4 -6.4 0  -6 -6.4 0  -5.6 -6.4 0  -5.2 -6.4 0  -4.8 -6.4 0  -4.4 -6.4 0  -4 -6.4 0  -3.6 -6.4 0  -3.2 -6.4 0  -2.8 -6.4 0  -2.4 -6.4 0  -2 -6.4 0  -1.6 -6.4 0  -1.199999999999999 -6.4 0  -0.8000000000000007 -6.4 0  -0.4000000000000004 -6.4 0  0 -6.4 0
[...]
<PointData  Scalars="f_104"> 
<DataArray  type="Float64"  Name="f_104"  format="ascii">-2.7114387185365294e-05  1.8746680421119003e-04  -3.2703496303734651e-04  4.4550530919671132e-04  -5.3625445041941596e-04  5.9370817527441789e-04  -6.1428171406874082e-04  5.9665570266972305e-04  -5.4186391580456734e-04  4.5323083839225817e-04  -3.3616735469501642e-04  1.9783771970512156e-04  -4.6718392617909784e-05  -1.0792392325710749e-04  2.5660302495259722e-04  -3.9019742474198448e-04  5.0051216568101149e-04  -5.8078353127329833e-04  6.2609560441484122e-04  -6.3368299974717165e-04  6.0310113826381412e-04  -5.3625353410490905e-04  4.3727446972702602e-04  -3.1227420504796518e-04  1.6896253982954948e-04  -1.6173764531312447e-05  -1.3667757040360776e-04  2.8017668111035516e-04  -4.0548855021212555e-04  5.0490217887987543e-04  -5.7230561986915129e-04  6.0356244470232084e-04  -5.9676652285438325e-04  5.5235938059497154e-04  -4.7310289144085113e-04  3.6390905607686189e-04  -2.3153724950312780e-04  8.4177709429337396e-05  6.9053188079329987e-05  -2.1867470231524082e-04  3.5542592476828824e-04  -4.7083649176904430e-04  5.5774854551562188e-04  -6.1075785912036423e-04  6.2654683169235579e-04  -6.0408879394838514e-04  5.4471036176382041e-04  -4.5200362666357317e-04  3.3154941043379881e-04  -1.8996915047197034e-04  2.7474187679629225e-05  1.8858402579028516e-04  -9.3545187947117656e-04  1.6243113101680931e-03  -2.2122179786710360e-03  2.6628090251322799e-03  -2.9481083045133473e-03  3.0502886325512839e-03  -2.9627957549599733e-03  2.6907620354032101e-03  -2.2506943932531186e-03  1.6694595181658601e-03  -9.8263012561860771e-04  2.3229459608390676e-04  5.3553498726213278e-04  -1.2737565445946676e-03  1.9370790180786883e-03  -2.4848118001641458e-03  2.8833708769500153e-03  -3.1083471455311050e-03  3.1460096347280778e-03  -2.9941508870382372e-03  2.6622225477046417e-03  -2.1707526695971995e-03  1.5500807823049414e-03  -8.3848853620869547e-04  7.9841147578233213e-05  6.7911507815569686e-04  -1.3916326438410157e-03  2.0138427671076977e-03  -2.5074578473394077e-03  2.8421300555081857e-03  -2.9973207175543076e-03  2.9635653169939194e-03  -2.7430561869827307e-03  2.3495070260663000e-03  -1.8073075471220651e-03  1.1500203716343659e-03  -4.1831275158246884e-04  -3.4254942984156538e-04  1.0854910703110511e-03  -1.7645286670427184e-03  2.3376039866244863e-03  -2.7691758645595702e-03  3.0324104752603993e-03  -3.1108349110176743e-03  2.9993518402018919e-03  -2.7045513915564270e-03  2.2442972196185990e-03  -1.6466020769704084e-03  9.4786499695627988e-04  -1.9107174273652722e-04  -3.4029531487846435e-04  1.6801972619632421e-03  -2.9161896584792477e-03  3.9714026984142628e-03  -4.7803096347251422e-03  5.2926018584120412e-03  -5.4762530380977042e-03  5.3194894688086353e-03  -4.8315181324553860e-03  4.0419623968058031e-03  -2.9990393924991970e-03  1.7665915959745636e-03  -4.2015549873989397e-04  -9.5769025782951867e-04  2.2824107563444687e-03  -3.4727212776481660e-03  4.4555936748699723e-03  -5.1707541452858689e-03  5.5743954083847733e-03  -5.6418745038794207e-03  5.3692300994038714e-03  -4.7734257537807630e-03  3.8913042218254108e-03  -2.7773171580148834e-03  1.5001701779604841e-03  -1.3858982882817975e-04  -1.2235266041758619e-03  2.5022797784959986e-03  -3.6189369408854118e-03  4.5047821609095692e-03  -5.1053493658538129e-03  5.3837773806406069e-03  -5.3230802784795484e-03  4.9271931643392790e-03  -4.2207289943992417e-03  3.2474614171933720e-03  -2.0676270726309167e-03  7.5421360251669669e-04  6.1153801379625625e-04  -1.9451396426355121e-03  3.1640622942750224e-03  -4.1928217847865086e-03  4.9676304212041712e-03  -5.4403281056281698e-03  5.5813505405748831e-03  -5.3815515892564484e-03  4.8527673498885687e-03  -4.0270878385512063e-03  2.9548864700245591e-03  -1.7017561569848052e-03  3.4463610770581871e-04  4.9000399515394366e-04  -2.4188423403765213e-03  4.1979116783185909e-03  -5.7168684428348451e-03  6.8814372048107107e-03  -7.6192067001822567e-03  7.8840779949047521e-03  -7.6591007321631585e-03  6.9575180423994114e-03  -5.8219527328027838e-03  4.3217838545166467e-03  -2.5488748861497361e-03  6.1191664225275413e-04  1.3702666311926476e-03  -3.2760355403346031e-03  4.9884274422819976e-03  -6.4023602969910040e-03  7.4311047755987736e-03  -8.0116258270739628e-03  8.1084647214877108e-03  -7.7159223071757337e-03  6.8584091195426945e-03  -5.5889406088097523e-03  3.9858703754529360e-03  -2.1480624978901710e-03  1.8880053080844731e-04  1.7711917480314225e-03  -3.6111877437064650e-03  5.2178954556181675e-03  -6.4924367254635008e-03  7.3564383429570715e-03  -7.7568597503385591e-03  7.6692599474584228e-03  -7.0993023432769399e-03  6.0824048081027466e-03  -4.6815565619342265e-03  2.9834363269779108e-03  -1.0930709439076242e-03  -8.7263651859882381e-04  2.7921104082967484e-03  -4.5465941097593736e-03  6.0274680801394222e-03  -7.1429434733052835e-03  7.8237189460294131e-03  -8.0272521656509430e-03  7.7403829445447320e-03  -6.9801467007047941e-03  5.7927292880953990e-03  -4.2506304815281941e-03  2.4482156480719543e-03  -4.9591956138054843e-04  -6.3790254577928080e-04  3.1488842448242661e-03  -5.4648906585468135e-03  7.4424138414243843e-03  -8.9588062972055325e-03  9.9198470136581396e-03  -1.0265546482475893e-02  9.9738426484484600e-03  -9.0619614758080599e-03  7.5853579663400176e-03  -5.6343023356490041e-03  3.3283214773690171e-03  -8.0883794728242413e-04  -1.7695400214161401e-03  4.2485409844326503e-03  -6.4759785240890155e-03  8.3151248203450854e-03  -9.6531319512309609e-03  1.0407982283402169e-02  -1.0533539639706734e-02  1.0022390166349654e-02  -8.9062978052985610e-03  7.2542463747696682e-03  -5.1681888825867274e-03  2.7767658821944282e-03  -2.2737995813514812e-04  -2.3228855167185237e-03  4.7169437545598516e-03  -6.8073820074259512e-03  8.4655427602613586e-03  -9.5894493894777607e-03  1.0110087844306863e-02  -9.9956574860247723e-03  9.2535291257402497e-03  -7.9297897254940620e-03  6.1064017380576688e-03  -3.8961521277405529e-03  1.4357022423581861e-03  1.1228332661654167e-03  -3.6212596963195319e-03  5.9050502799509463e-03  -7.8328682976098480e-03  9.2852767443938541e-03  -1.0172098996613638e-02  1.0437976983282618e-02  -1.0065784646566324e-02  9.0776865287910020e-03  -7.5337768484323832e-03  5.5283831745098185e-03  -3.1842610198906827e-03  6.4502728526198553e-04  7.8352553203914340e-04  -3.8677302247017219e-03  6.7125426038631602e-03  -9.1418026238742189e-03  1.1004954959057123e-02  -1.2186332863272580e-02  1.2612288111726992e-02  -1.2255730855676309e-02  1.1137801045043180e-02  -9.3265687916585394e-03  6.9328436589119044e-03  -4.1033509911305756e-03  1.0116955425283456e-03  2.1523309103424720e-03  -5.1944393128111202e-03  7.9278102669383330e-03  -1.0184600972422939e-02  1.1826283224538449e-02  -1.2752175655581604e-02  1.2905644556080228e-02  -1.2277591264370584e-02  1.0907011343657569e-02  -8.8785910142106378e-03  6.3174889949291187e-03  -3.3816252102934793e-03  2.5195137337372196e-04  2.8786970559177968e-03  -5.8174808601487377e-03  8.3834370284925595e-03  -1.0418626869119072e-02  1.1797865482377393e-02  -1.2436433158642242e-02  1.2295293671501806e-02  -1.1383497978780696e-02  9.7576252657506253e-03  -7.5182957561822691e-03  4.8039701112104179e-03  -1.7824174726173276e-03  -1.3596222827300633e-03  4.4279451368512759e-03  -7.2328495833583169e-03  9.6008259830197250e-03  -1.1385248594820097e-02  1.2475411565573923e-02  -1.2803352195940721e-02  1.2348041246750494e-02  -1.1136682144522238e-02  9.2430391241789776e-03  -6.7828969499864507e-03  3.9069304947173525e-03  -7.9142032539568244e-04  -9.2634171625123379e-04  4.5727313310757961e-03  -7.9362474238681337e-03  1.0808745347274286e-02  -1.3012335588902807e-02  1.4410348927995149e-02  -1.4915760653059539e-02  1.4496555383588244e-02  -1.3177702577450335e-02  1.1039621299247451e-02  -8.2132289576222154e-03  4.8718789669756233e-03  -1.2206840101052893e-03  -2.5161173488225776e-03  6.1089724558802310e-03  -9.3371538966910521e-03  1.2002355278516865e-02  -1.3940905908561139e-02  1.5033851933010533e-02  -1.5214282744977914e-02  1.4471451474819689e-02  -1.2851435625237882e-02  1.0454297206285280e-02  -7.4279172862556373e-03  3.9588848171889833e-03  -2.6100103322735394e-04  -3.4378923497988428e-03  6.9099497193987457e-03  -9.9413581385364713e-03  1.2345509205615175e-02  -1.3974494742094661e-02  1.4728218046589123e-02  -1.4560559488072651e-02  1.3482216518619005e-02  -1.1560043263059495e-02  8.9129302501751769e-03  -5.7044781916993871e-03  2.1329171644874044e-03  1.5811077693775215e-03  -5.2081320734715013e-03  8.5240106803286947e-03  -1.1323729443907709e-02  1.3434038133211222e-02  -1.4724126789184683e-02  1.5113687602575537e-02  -1.4577865813379106e-02  1.3148794456007900e-02  -1.0913618413646917e-02  8.0091291245100987e-03  -4.6133398779293821e-03  9.3452013258683874e-04  1.0658091043616218e-03  -5.2612092792520496e-03  9.1313496348230799e-03  -1.2436899985236755e-02  1.4973318677435907e-02  -1.6583458120517848e-02  1.7167250192920175e-02  -1.6687874656936108e-02  1.5174030830813184e-02  -1.2718172635985386e-02  9.4708159289357413e-03  -5.6312687123445783e-03  1.4353553678374618e-03  2.8591088426854479e-03  -6.9881981600592976e-03  1.0698133340182677e-02  -1.3760913698763018e-02  1.5988361211390457e-02  -1.7243711482770544e-02  1.7450037485225660e-02  -1.6594987125028566e-02  1.4731542850714490e-02  -1.1974756403043598e-02  8.4946599417747744e-03  -4.5057902600587453e-03  2.5397142153901260e-04  3.9988298274757864e-03  -7.9906429417930958e-03  1.1475632454654638e-02  -1.4239242670800886e-02  1.6111415034867654e-02  -1.6977064059231679e-02  1.6783166290454513e-02  -1.5542025753793381e-02  1.3330514505020187e-02  -1.0285335319209228e-02  6.5945981364779679e-03  -2.4862293778404694e-03  -1.7860718586970379e-03  5.9584655477945255e-03  -9.7732274125045728e-03  1.2994628949098924e-02  -1.5423462569269132e-02  1.6909316963294008e-02  -1.7359846480084158e-02  1.6746463402078811e-02  -1.5106102452596283e-02  1.2538948681788132e-02  -9.2022685921990897e-03  5.3007242422871206e-03  -1.0737672820654617e-03  -1.2013826471077343e-03  5.9304726978352635e-03  -1.0293172509402414e-02  1.4019888122260793e-02  -1.6880212431343068e-02  1.8697123251767631e-02  -1.9357892492102808e-02  1.8821034187616999e-02  -1.7118863369331948e-02  1.4355508174787365e-02  -1.0700497730816518e-02  6.3783208247223016e-03  -1.6545985962693088e-03  -3.1802768813323531e-03  7.8290301418207399e-03  -1.2005814088706601e-02  1.5453817841386356e-02  -1.7961085920347016e-02  1.9373574210113362e-02  -1.9604638412751514e-02  1.8640370401111220e-02  -1.6540453797264914e-02  1.3434486008369995e-02  -9.5139933414849637e-03  5.0206310950281132e-03  -2.3129560003952763e-04  -4.5589345899059320e-03  9.0549774594553857e-03  -1.2979926298863409e-02  1.6092108578332927e-02  -1.8199973970306680e-02  1.9173894324269358e-02  -1.8954148680932273e-02  1.7554601388070749e-02  -1.5061846692105630e-02  1.1629872574285738e-02  -7.4705725179120509e-03  2.8406897783606034e-03  1.9740015543132476e-03  -6.6763040816307474e-03  1.0975908588231231e-02  -1.4607281263083721e-02  1.7346024767881170e-02  -1.9022705184909866e-02  1.9533292980929727e-02  -1.8845574765278688e-02  1.7001140761152906e-02  -1.4112825548509686e-02  1.0357759590422301e-02  -5.9664596537812769e-03  1.2086302983542253e-03  1.3325177399712799e-03  -6.5778324198306247e-03  1.1417040623896686e-02  -1.5551324251540809e-02  1.8725298432055015e-02  -2.0742747632215799e-02  2.1478716561807894e-02  -2.0887210921899407e-02  1.9004033526579669e-02  -1.5944581135708603e-02  1.1896737680261183e-02  -7.1093017544250200e-03  1.8766612783351776e-03  3.4793405251418528e-03  -8.6292306410581127e-03  1.3256201945721798e-02  -1.7075628709999329e-02  1.9852599676163086e-02  -2.1416388509824524e-02  2.1670970250974874e-02  -2.0600935802089201e-02  1.8272440175190887e-02  -1.4829126026296210e-02  1.0483273629261571e-02  -5.5027225310465356e-03  1.9437052999518183e-04  5.1147333260705176e-03  -1.0097537090542572e-02  1.4447134237929357e-02  -1.7895670748280072e-02  2.0230846157863105e-02  -2.1308991983288044e-02  2.1063921829611906e-02  -1.9511008006790304e-02  1.6746233416036396e-02  -1.2940277224653938e-02  8.3279985890132649e-03  -3.1939664106240199e-03  -2.1450735375497720e-03  7.3597138468352646e-03  -1.2128180927555668e-02  1.6156160242861147e-02  -1.9194930054324759e-02  2.1056686431125508e-02  -2.1626115493343961e-02  2.0867499824043744e-02  -1.8826921346370776e-02  1.5629424832486777e-02  -1.1471316816147983e-02  6.6080743036278852e-03  -1.3386083513536812e-03  -1.4586738821800577e-03  7.2006192063953020e-03  -1.2498309799646126e-02  1.7024856692919570e-02  -2.0500882330004286e-02  2.2711733995466742e-02  -2.3520709824826212e-02  2.2877482487666193e-02  -2.0821201607323730e-02  1.7478083794845493e-02  -1.3053638727576153e-02  7.8200102107563556e-03  -2.0992120763604150e-03  -3.7567082418657220e-03  9.3873565366146099e-03  -1.4446192900155405e-02  1.8621879391943343e-02  -2.1657459154106690e-02  2.3366185414568589e-02  -2.3643025206335669e-02  2.2471129138370797e-02  -1.9922868610313584e-02  1.6155376640489320e-02  -1.1400866920769966e-02  5.9523275807642452e-03  -1.4547102781419457e-04  -5.6619482291466730e-03  1.1112173490491085e-02  -1.5869485839368758e-02  1.9640886303190920e-02  -2.2194146086180866e-02  2.3372112844374772e-02  -2.3102391692136130e-02  2.1401804483403026e-02  -1.8375352712560210e-02  1.4209747854000613e-02  -9.1619077782897126e-03  3.5431278869722548e-03  2.3000978167074214e-03  -8.0074242335645626e-03  1.3226856052013352e-02  -1.7636434360161747e-02  2.0964072863217845e-02  -2.3004321773843463e-02  2.3631026504311554e-02  -2.2805101342889735e-02  2.0576939203722278e-02  -1.7083308928168985e-02  1.2538931327494462e-02  -7.2232529149465026e-03  1.4632322301281924e-03  1.5793189191900966e-03  -7.7962047315427987e-03  1.3532403754989869e-02  -1.8434218666681417e-02  2.2199357886458996e-02  -2.4595559780864293e-02  2.5474902668172615e-02  -2.4782918907146109e-02  2.2561951616560137e-02  -1.8948547231662973e-02  1.4165044493081331e-02  -8.5058780501351041e-03  2.3194404827111157e-03  4.0133798829027397e-03  -1.0102663132977882e-02  1.5573478380578558e-02  -2.0088981021638117e-02  2.3371163697268917e-02  -2.5217982582454536e-02  2.5515803914367127e-02  -2.4246403965690635e-02  2.1488091276559880e-02  -1.7410881951657832e-02  1.2266025274507762e-02  -6.3705249714680178e-03  8.7609600608802731e-05  6.1956446452016570e-03  -1.2092160266639649e-02  1.7238704773649124e-02  -2.1318267938699453e-02  2.4079591367612035e-02  -2.5352647322791792e-02  2.5059113124417609e-02  -2.3217195914423821e-02  1.9940510502251780e-02  -1.5431079459463648e-02  9.9668866712868242e-03  -3.8847511269756306e-03  -2.4404239379599516e-03  8.6187481791673206e-03  -1.4269364667088034e-02  1.9043913899285118e-02  -2.2647995866637297e-02  2.4859307889293827e-02  -2.5541340894732995e-02  2.4651790261901219e-02  -2.2245163125088303e-02  1.8469421511397726e-02  -1.3556868055208652e-02  7.8098358755511500e-03  -1.5820641871556712e-03  -1.6939338825570228e-03  8.3620254810369832e-03  -1.4514856244550329e-02  1.9773287535155268e-02  -2.3813281846358100e-02  2.6385865854942566e-02  -2.7332469028207525e-02  2.6594692917326045e-02  -2.4217909211218868e-02  2.0348464883049283e-02  -1.5224666635183638e-02  9.1621000355752765e-03  -2.5341877894428273e-03  -4.2508151304965786e-03  1.0774972252664992e-02  -1.6636412819727785e-02  2.1474089290730851e-02  -2.4990019874258734e-02  2.6967645858449206e-02  -2.7285172786399789e-02  2.5923073580405572e-02  -2.2965291402354975e-02  1.8594068125868911e-02  -1.3078717025172710e-02  6.7590313382957009e-03  -2.4350877946411411e-05  -6.7104237582546406e-03  1.3030391604681562e-02  -1.8546211765744457e-02  2.2918089204910390e-02  -2.5876708122026360e-02  2.7239823412203507e-02  -2.6923487990657826e-02  2.4947224319978985e-02  -2.1432821607987814e-02  1.6596832647754779e-02  -1.0737232724045762e-02  4.2150622618011002e-03  2.5678156600746388e-03  -9.1934728067874609e-03  1.5253662917656256e-02  -2.0374972501488283e-02  2.4241825607621195e-02  -2.6615925567044559e-02  2.7350935799421799e-02  -2.6401495318928509e-02  2.3826013556031474e-02  -1.9783072255794284e-02  1.4521656148577047e-02  -8.3658142842614087e-03  1.6946969363101077e-03  1.8020182193652326e-03  -8.8956087321951285e-03  1.5441357175309872e-02  -2.1036149882645527e-02  2.5335456557341290e-02  -2.8074554887768183e-02  2.9084838546128738e-02  -2.8304203832978797e-02  2.5780875146714736e-02  -2.1670433593229142e-02  1.6226231716799495e-02  -9.7837849658067404e-03  2.7401014282782202e-03  4.4707767465530053e-03  -1.1404513432122013e-02  1.7633852755572277e-02  -2.2774941034675672e-02  2.6510974910657431e-02  -2.8611718648547630e-02  2.8947688371157070e-02  -2.7498129325252751e-02  2.4352294696674159e-02  -1.9703947278301208e-02  1.3839422634464589e-02  -7.1199891984125704e-03  -4.0408021800650183e-05  7.2006489065200565e-03  -1.3919613966103276e-02  1.9783360000099132e-02  -2.4430621599852650e-02  2.7575067409074273e-02  -2.9022940012765727e-02  2.8684992750250028e-02  -2.6581988038309162e-02  2.2843418499551030e-02  -1.7699529681724547e-02  1.1467135793894707e-02  -4.5301023361290667e-03  -2.6843020654625741e-03  9.7317276430650239e-03  -1.6178117782669137e-02  2.1626449143011681e-02  -2.5741190307970532e-02  2.8268972097305865e-02  -2.9054196201987691e-02  2.8048620460857761e-02  -2.5314330372334975e-02  2.1019913675350492e-02  -1.5430073766318216e-02  8.8893217776379423e-03  -1.8007520494302018e-03  -1.9030952734558002e-03  9.3945996976229976e-03  -1.6307800750317101e-02  2.2217169662107333e-02  -2.6759016618209109e-02  2.9653894882893397e-02  -3.0723815038743368e-02  2.9903208874544934e-02  -2.7242967468048111e-02  2.2907304706136680e-02  -1.7163639419505251e-02  1.0366119551347017e-02  -2.9338032965109300e-03  -4.6751585748301093e-03  1.1991748678300761e-02  -1.8564978365454003e-02  2.3989672332720674e-02  -2.7931430777206570e-02  3.0147231270314823e-02  -3.0500401146067779e-02  2.8969038026537126e-02  -2.5647359691333010e-02  2.0739900175497188e-02  -1.4548909610001434e-02  7.4557340513603165e-03  1.0267754623771067e-04  -7.6606919413854547e-03  1.4752677432719304e-02  -2.0941689688247118e-02  2.5846390292835263e-02  -2.9164539807253784e-02  3.0691617841969797e-02  -3.0333423214036873e-02  2.8111877730963412e-02  -2.4163676299300555e-02  1.8731866265673292e-02  -1.2150874975905902e-02  4.8259077592178951e-03  2.7920143143504339e-03  -1.0233839217063731e-02  1.7041379397082123e-02  -2.2795537914490464e-02  2.7142126227530580e-02  -2.9813683247628554e-02  3.0645951328680240e-02  -2.9587994280706718e-02  2.6705334040339018e-02  -2.2175912769045396e-02  1.6279129147266275e-02  -9.3786242979954394e-03  1.8998778834955932e-03  1.9967177456060381e-03  -9.8567885571811276e-03  1.7110333535530951e-02  -2.3311056272152353e-02  2.8077515695736611e-02  -3.1116622985128430e-02  3.2241695500890670e-02  -3.1383955472141803e-02  2.8596765091785041e-02  -2.4052337056454171e-02  1.8031123267585041e-02  -1.0904535405593597e-02  3.1120618719180713e-03  4.8658091130373464e-03  -1.2537192167590357e-02  1.9429109472477130e-02  -2.5116630522200034e-02  2.9249051836373160e-02  -3.1571503616978629e-02  3.1940652451980057e-02  -3.0333532503172719e-02  2.6848961214085369e-02  -2.1701452283592132e-02  1.5208000922617404e-02  -7.7685554764437377e-03  -1.5862152394519814e-04  8.0851849193525564e-03  -1.5522791930334514e-02  2.2013187135666780e-02  -2.7156434024280390e-02  3.0635553879434025e-02  -3.2236054090297235e-02  3.1859142829587510e-02  -2.9527815972250827e-02  2.5385441267767723e-02  -1.9686927012228558e-02  1.2783019224304802e-02  -5.0986948035983831e-03  -2.8930183697003704e-03  1.0700181366781648e-02  -1.7842249157760903e-02  2.3879673463008035e-02  -2.8440979910721958e-02  3.1245651299326747e-02  -3.2121407317292190e-02  3.1014816089610434e-02  -2.7994583894919583e-02  2.3247320367315978