<?xml version="1.0"?>
<VTKFile type="UnstructuredGrid"  version="0.1"  >
<UnstructuredGrid>
<Piece  NumberOfPoints="2601" NumberOfCells="5000">
<Points>
<DataArray  type="Float64"  NumberOfComponents="3"  format="ascii">-10 -10 0  -9.6 -10 0  -9.199999999999999 -10 0  -8.800000000000001 -10 0  -8.4 -10 0  -8 -10 0  -7.6 -10 0  -7.2 -10 0  -6.8 -10 0  -6.4 -10 0  -6 -10 0  -5.6 -10 0  -5.2 -10 0  -4.8 -10 0  -4.4 -10 0  -4 -10 0  -3.6 -10 0  -3.2 -10 0  -2.8 -10 0  -2.4 -10 0  -2 -10 0  -1.6 -10 0  -1.199999999999999 -10 0  -0.8000000000000007 -10 0  -0.4000000000000004 -10 0  0 -10 0  0.4000000000000004 -10 0  0.8000000000000007 -10 0  1.199999999999999 -10 0  1.6 -10 0  2 -10 0  2.4 -10 0  2.800000000000001 -10 0  3.199999999999999 -10 0  3.6 -10 0  4 -10 0  4.4 -10 0  4.800000000000001 -10 0  5.199999999999999 -10 0  5.6 -10 0  6 -10 0  6.399999999999999 -10 0  6.800000000000001 -10 0  7.199999999999999 -10 0  7.600000000000001 -10 0  8 -10 0  8.399999999999999 -10 0  8.800000000000001 -10 0  9.199999999999999 -10 0  9.600000000000001 -10 0  10 -10 0  -10 -9.6 0  -9.6 -9.6 0  -9.199999999999999 -9.6 0  -8.800000000000001 -9.6 0  -8.4 -9.6 0  -8 -9.6 0  -7.6 -9.6 0  -7.2 -9.6 0  -6.8 -9.6 0  -6.4 -9.6 0  -6 -9.6 0  -5.6 -9.6 0  -5.2 -9.6 0  -4.8 -9.6 0  -4.4 -9.6 0  -4 -9.6 0  -3.6 -9.6 0  -3.2 -9.6 0  -2.8 -9.6 0  -2.4 -9.6 0  -2 -9.6 0  -1.6 -9.6 0  -1.199999999999999 -9.6 0  -0.8000000000000007 -9.6 0  -0.4000000000000004 -9.6 0  0 -9.6 0  0.4000000000000004 -9.6 0  0.8000000000000007 -9.6 0  1.199999999999999 -9.6 0  1.6 -9.6 0  2 -9.6 0  2.4 -9.6 0  2.800000000000001 -9.6 0  3.199999999999999 -9.6 0  3.6 -9.6 0  4 -9.6 0  4.4 -9.6 0  4.800000000000001 -9.6 0  5.199999999999999 -9.6 0  5.6 -9.6 0  6 -9.6 0  6.399999999999999 -9.6 0  6.800000000000001 -9.6 0  7.199999999999999 -9.6 0  7.600000000000001 -9.6 0  8 -9.6 0  8.399999999999999 -9.6 0  8.800000000000001 -9.6 0  9.199999999999999 -9.6 0  9.600000000000001 -9.6 0  10 -9.6 0  -10 -9.199999999999999 0  -9.6 -9.199999999999999 0  -9.199999999999999 -9.199999999999999 0  -8.800000000000001 -9.199999999999999 0  -8.4 -9.199999999999999 0  -8 -9.199999999999999 0  -7.6 -9.199999999999999 0  -7.2 -9.199999999999999 0  -6.8 -9.199999999999999 0  -6.4 -9.199999999999999 0  -6 -9.199999999999999 0  -5.6 -9.199999999999999 0  -5.2 -9.199999999999999 0  -4.8 -9.199999999999999 0  -4.4 -9.199999999999999 0  -4 -9.199999999999999 0  -3.6 -9.199999999999999 0  -3.2 -9.199999999999999 0  -2.8 -9.199999999999999 0  -2.4 -9.199999999999999 0  -2 -9.199999999999999 0  -1.6 -9.199999999999999 0  -1.199999999999999 -9.199999999999999 0  -0.8000000000000007 -9.199999999999999 0  -0.4000000000000004 -9.199999999999999 0  0 -9.199999999999999 0  0.4000000000000004 -9.199999999999999 0  0.8000000000000007 -9.199999999999999 0  1.199999999999999 -9.199999999999999 0  1.6 -9.199999999999999 0  2 -9.199999999999999 0  2.4 -9.199999999999999 0  2.800000000000001 -9.199999999999999 0  3.199999999999999 -9.199999999999999 0  3.6 -9.199999999999999 0  4 -9.199999999999999 0  4.4 -9.199999999999999 0  4.800000000000001 -9.199999999999999 0  5.199999999999999 -9.199999999999999 0  5.6 -9.199999999999999 0  6 -9.199999999999999 0  6.399999999999999 -9.199999999999999 0  6.800000000000001 -9.199999999999999 0  7.199999999999999 -9.199999999999999 0  7.600000000000001 -9.199999999999999 0  8 -9.199999999999999 0  8.399999999999999 -9.199999999999999 0  8.800000000000001 -9.199999999999999 0  9.199999999999999 -9.199999999999999 0  9.600000000000001 -9.199999999999999 0  10 -9.199999999999999 0  -10 -8.800000000000001 0  -9.6 -8.800000000000001 0  -9.199999999999999 -8.800000000000001 0  -8.800000000000001 -8.800000000000001 0  -8.4 -8.800000000000001 0  -8 -8.800000000000001 0  -7.6 -8.800000000000001 0  -7.2 -8.800000000000001 0  -6.8 -8.800000000000001 0  -6.4 -8.800000000000001 0  -6 -8.800000000000001 0  -5.6 -8.800000000000001 0  -5.2 -8.800000000000001 0  -4.8 -8.800000000000001 0  -4.4 -8.800000000000001 0  -4 -8.800000000000001 0  -3.6 -8.800000000000001 0  -3.2 -8.800000000000001 0  -2.8 -8.800000000000001 0  -2.4 -8.800000000000001 0  -2 -8.800000000000001 0  -1.6 -8.800000000000001 0  -1.199999999999999 -8.800000000000001 0  -0.8000000000000007 -8.800000000000001 0  -0.4000000000000004 -8.800000000000001 0  0 -8.800000000000001 0  0.4000000000000004 -8.800000000000001 0  0.8000000000000007 -8.800000000000001 0  1.199999999999999 -8.800000000000001 0  1.6 -8.800000000000001 0  2 -8.800000000000001 0  2.4 -8.800000000000001 0  2.800000000000001 -8.800000000000001 0  3.199999999999999 -8.800000000000001 0  3.6 -8.800000000000001 0  4 -8.800000000000001 0  4.4 -8.800000000000001 0  4.800000000000001 -8.800000000000001 0  5.199999999999999 -8.800000000000001 0  5.6 -8.800000000000001 0  6 -8.800000000000001 0  6.399999999999999 -8.800000000000001 0  6.800000000000001 -8.800000000000001 0  7.199999999999999 -8.800000000000001 0  7.600000000000001 -8.800000000000001 0  8 -8.800000000000001 0  8.399999999999999 -8.800000000000001 0  8.800000000000001 -8.800000000000001 0  9.199999999999999 -8.800000000000001 0  9.600000000000001 -8.800000000000001 0  10 -8.800000000000001 0  -10 -8.4 0  -9.6 -8.4 0  -9.199999999999999 -8.4 0  -8.800000000000001 -8.4 0  -8.4 -8.4 0  -8 -8.4 0  -7.6 -8.4 0  -7.2 -8.4 0  -6.8 -8.4 0  -6.4 -8.4 0  -6 -8.4 0  -5.6 -8.4 0  -5.2 -8.4 0  -4.8 -8.4 0  -4.4 -8.4 0  -4 -8.4 0  -3.6 -8.4 0  -3.2 -8.4 0  -2.8 -8.4 0  -2.4 -8.4 0  -2 -8.4 0  -1.6 -8.4 0  -1.199999999999999 -8.4 0  -0.8000000000000007 -8.4 0  -0.4000000000000004 -8.4 0  0 -8.4 0  0.4000000000000004 -8.4 0  0.8000000000000007 -8.4 0  1.199999999999999 -8.4 0  1.6 -8.4 0  2 -8.4 0  2.4 -8.4 0  2.800000000000001 -8.4 0  3.199999999999999 -8.4 0  3.6 -8.4 0  4 -8.4 0  4.4 -8.4 0  4.800000000000001 -8.4 0  5.199999999999999 -8.4 0  5.6 -8.4 0  6 -8.4 0  6.399999999999999 -8.4 0  6.800000000000001 -8.4 0  7.199999999999999 -8.4 0  7.600000000000001 -8.4 0  8 -8.4 0  8.399999999999999 -8.4 0  8.800000000000001 -8.4 0  9.199999999999999 -8.4 0  9.600000000000001 -8.4 0  10 -8.4 0  -10 -8 0  -9.6 -8 0  -9.199999999999999 -8 0  -8.800000000000001 -8 0  -8.4 -8 0  -8 -8 0  -7.6 -8 0  -7.2 -8 0  -6.8 -8 0  -6.4 -8 0  -6 -8 0  -5.6 -8 0  -5.2 -8 0  -4.8 -8 0  -4.4 -8 0  -4 -8 0  -3.6 -8 0  -3.2 -8 0  -2.8 -8 0  -2.4 -8 0  -2 -8 0  -1.6 -8 0  -1.199999999999999 -8 0  -0.8000000000000007 -8 0  -0.4000000000000004 -8 0  0 -8 0  0.4000000000000004 -8 0  0.8000000000000007 -8 0  1.199999999999999 -8 0  1.6 -8 0  2 -8 0  2.4 -8 0  2.800000000000001 -8 0  3.199999999999999 -8 0  3.6 -8 0  4 -8 0  4.4 -8 0  4.800000000000001 -8 0  5.199999999999999 -8 0  5.6 -8 0  6 -8 0  6.399999999999999 -8 0  6.800000000000001 -8 0  7.199999999999999 -8 0  7.600000000000001 -8 0  8 -8 0  8.399999999999999 -8 0  8.800000000000001 -8 0  9.199999999999999 -8 0  9.600000000000001 -8 0  10 -8 0  -10 -7.6 0  -9.6 -7.6 0  -9.199999999999999 -7.6 0  -8.800000000000001 -7.6 0  -8.4 -7.6 0  -8 -7.6 0  -7.6 -7.6 0  -7.2 -7.6 0  -6.8 -7.6 0  -6.4 -7.6 0  -6 -7.6 0  -5.6 -7.6 0  -5.2 -7.6 0  -4.8 -7.6 0  -4.4 -7.6 0  -4 -7.6 0  -3.6 -7.6 0  -3.2 -7.6 0  -2.8 -7.6 0  -2.4 -7.6 0  -2 -7.6 0  -1.6 -7.6 0  -1.199999999999999 -7.6 0  -0.8000000000000007 -7.6 0  -0.4000000000000004 -7.6 0  0 -7.6 0  0.4000000000000004 -7.6 0  0.8000000000000007 -7.6 0  1.199999999999999 -7.6 0  1.6 -7.6 0  2 -7.6 0  2.4 -7.6 0  2.800000000000001 -7.6 0  3.199999999999999 -7.6 0  3.6 -7.6 0  4 -7.6 0  4.4 -7.6 0  4.800000000000001 -7.6 0  5.199999999999999 -7.6 0  5.6 -7.6 0  6 -7.6 0  6.399999999999999 -7.6 0  6.800000000000001 -7.6 0  7.199999999999999 -7.6 0  7.600000000000001 -7.6 0  8 -7.6 0  8.399999999999999 -7.6 0  8.800000000000001 -7.6 0  9.199999999999999 -7.6 0  9.600000000000001 -7.6 0  10 -7.6 0  -10 -7.2 0  -9.6 -7.2 0  -9.199999999999999 -7.2 0  -8.800000000000001 -7.2 0  -8.4 -7.2 0  -8 -7.2 0  -7.6 -7.2 0  -7.2 -7.2 0  -6.8 -7.2 0  -6.4 -7.2 0  -6 -7.2 0  -5.6 -7.2 0  -5.2 -7.2 0  -4.8 -7.2 0  -4.4 -7.2 0  -4 -7.2 0  -3.6 -7.2 0  -3.2 -7.2 0  -2.8 -7.2 0  -2.4 -7.2 0  -2 -7.2 0  -1.6 -7.2 0  -1.199999999999999 -7.2 0  -0.8000000000000007 -7.2 0  -0.4000000000000004 -7.2 0  0 -7.2 0  0.4000000000000004 -7.2 0  0.8000000000000007 -7.2 0  1.199999999999999 -7.2 0  1.6 -7.2 0  2 -7.2 0  2.4 -7.2 0  2.800000000000001 -7.2 0  3.199999999999999 -7.2 0  3.6 -7.2 0  4 -7.2 0  4.4 -7.2 0  4.800000000000001 -7.2 0  5.199999999999999 -7.2 0  5.6 -7.2 0  6 -7.2 0  6.399999999999999 -7.2 0  6.800000000000001 -7.2 0  7.199999999999999 -7.2 0  7.600000000000001 -7.2 0  8 -7.2 0  8.399999999999999 -7.2 0  8.800000000000001 -7.2 0  9.199999999999999 -7.2 0  9.600000000000001 -7.2 0  10 -7.2 0  -10 -6.8 0  -9.6 -6.8 0  -9.199999999999999 -6.8 0  -8.800000000000001 -6.8 0  -8.4 -6.8 0  -8 -6.8 0  -7.6 -6.8 0  -7.2 -6.8 0  -6.8 -6.8 0  -6.4 -6.8 0  -6 -6.8 0  -5.6 -6.8 0  -5.2 -6.8 0  -4.8 -6.8 0  -4.4 -6.8 0  -4 -6.8 0  -3.6 -6.8 0  -3.2 -6.8 0  -2.8 -6.8 0  -2.4 -6.8 0  -2 -6.8 0  -1.6 -6.8 0  -1.199999999999999 -6.8 0  -0.8000000000000007 -6.8 0  -0.4000000000000004 -6.8 0  0 -6.8 0  0.4000000000000004 -6.8 0  0.8000000000000007 -6.8 0  1.199999999999999 -6.8 0  1.6 -6.8 0  2 -6.8 0  2.4 -6.8 0  2.800000000000001 -6.8 0  3.199999999999999 -6.8 0  3.6 -6.8 0  4 -6.8 0  4.4 -6.8 0  4.800000000000001 -6.8 0  5.199999999999999 -6.8 0  5.6 -6.8 0  6 -6.8 0  6.399999999999999 -6.8 0  6.800000000000001 -6.8 0  7.199999999999999 -6.8 0  7.600000000000001 -6.8 0  8 -6.8 0  8.399999999999999 -6.8 0  8.800000000000001 -6.8 0  9.199999999999999 -6.8 0  9.600000000000001 -6.8 0  10 -6.8 0  -10 -6.4 0  -9.6 -6.4 0  -9.199999999999999 -6.4 0  -8.800000000000001 -6.4 0  -8.4 -6.4 0  -8 -6.4 0  -7.6 -6.4 0  -7.2 -6.4 0  -6.8 -6.4 0  -6.4 -6.4 0  -6 -6.4 0  -5.6 -6.4 0  -5.2 -6.4 0  -4.8 -6.4 0  -4.4 -6.4 0  -4 -6.4 0  -3.6 -6.4 0  -3.2 -6.4 0  -2.8 -6.4 0  -2.4 -6.4 0  -2 -6.4 0  -1.6 -6.4 0  -1.199999999999999 -6.4 0  -0.8000000000000007 -6.4 0  -0.4000000000000004 -6.4 0  0 -6.4 0
[...]
<PointData  Scalars="f_445"> 
<DataArray  type="Float64"  Name="f_445"  format="ascii">2.6356624510539449e-04  -1.7852164529801972e-03  3.0266426375006356e-03  -3.9368338280978254e-03  4.4273662309427782e-03  -4.4491631783139217e-03  4.0035062121150135e-03  -3.1420232333309902e-03  1.9605827346620588e-03  -5.8828955308374621e-04  -8.2706676831124178e-04  2.1354100797406784e-03  -3.2007419971953948e-03  3.9156309886645433e-03  -4.2122381730150997e-03  4.0687220911445211e-03  -3.5104231472384679e-03  2.6058387397887768e-03  -1.4579952144433031e-03  1.9232731555961035e-04  1.0574640319713604e-03  -2.1639284947108585e-03  3.0191325413419542e-03  -3.5452589357973618e-03  3.7014895853609443e-03  -3.4865910412539697e-03  2.9371385395925409e-03  -2.1218092445298236e-03  1.1325953259926416e-03  -7.4082286778571119e-05  -9.4791766202030386e-04  1.8371032217715175e-03  -2.5156817202401870e-03  2.9307970542215892e-03  -3.0579138257566699e-03  2.9010653624689194e-03  -2.4902315350146952e-03  1.8764064160739005e-03  -1.1251113686372046e-03  3.0919624073754651e-04  4.9825569700874832e-04  -1.2302232348967268e-03  1.8307381651102156e-03  -2.2582907438676433e-03  2.4875932887859944e-03  -2.5098377824601644e-03  2.3317177677714793e-03  -1.9735379364604565e-03  1.4665511555527430e-03  -8.4753805187282472e-04  1.2468419070459715e-04  -1.7815436612484306e-03  8.6490688585605085e-03  -1.4591639445437989e-02  1.8974136125903308e-02  -2.1336720982185624e-02  2.1439971923324082e-02  -1.9290003370239218e-02  1.5135944323604707e-02  -9.4402393360249505e-03  2.8255223340482262e-03  3.9955916852639816e-03  -1.0299606136190399e-02  1.5431060868059695e-02  -1.8872387718565531e-02  2.0297040385372066e-02  -1.9600323129279451e-02  1.6905029247138166e-02  -1.2541955074946907e-02  7.0082198748165842e-03  -9.0875997303499077e-04  -5.1119014638828040e-03  1.0439659240430811e-02  -1.4554764964778579e-02  1.7082873788819283e-02  -1.7828139549139504e-02  1.6785571471746662e-02  -1.4132352878802856e-02  1.0200216385979999e-02  -5.4329892324142372e-03  3.3484522096025119e-04  4.5845094692742103e-03  -8.8615706510209481e-03  1.2122337638671894e-02  -1.4113188024376605e-02  1.4717053815405888e-02  -1.3954469955906823e-02  1.1970797406149293e-02  -9.0123345915619438e-03  5.3949786329177893e-03  -1.4695042353267372e-03  -2.4126005929693641e-03  5.9293942454080378e-03  -8.8124102424104508e-03  1.0862916967095881e-02  -1.1960256036281277e-02  1.2062934089169104e-02  -1.1203800307860884e-02  9.4809654794384482e-03  -7.0461013353160734e-03  4.0915788653044438e-03  -8.3977422827260844e-04  2.9842854290073988e-03  -1.4416974572839643e-02  2.4307295172527506e-02  -3.1597941561845103e-02  3.5519970192335840e-02  -3.5674435622407893e-02  3.2073378112968606e-02  -2.5134916728099654e-02  1.5633145275352561e-02  -4.6089537517450384e-03  -6.7476247822377692e-03  1.7229803615820740e-02  -2.5745957412641695e-02  3.1436183891494732e-02  -3.3760700052461103e-02  3.2550780037405393e-02  -2.8017464845675778e-02  2.0718237317239752e-02  -1.1486661026904566e-02  1.3340574733779094e-03  8.6648193204425742e-03  -1.7488759629484363e-02  2.4276595310189400e-02  -2.8411826479826003e-02  2.9576982803015815e-02  -2.7773163522246631e-02  2.3304385011205950e-02  -1.6730378922292226e-02  8.7948528791677912e-03  -3.3858034841909620e-04  -7.7921995724689113e-03  1.4831778766674970e-02  -2.0166460847484708e-02  2.3384941420651471e-02  -2.4303924807384282e-02  2.2968426500640984e-02  -1.9629112480747682e-02  1.4701375569916506e-02  -8.7123985541349581e-03  2.2430850694961234e-03  4.1285395697891417e-03  -9.8769081471240614e-03  1.4567524636255663e-02  -1.7882531981141057e-02  1.9633001855423847e-02  -1.9759272995125105e-02  1.8321755878962169e-02  -1.5485143807378997e-02  1.1498950487535613e-02  -6.6768823865268161e-03  1.3770134585907117e-03  -3.8013437242571560e-03  1.8358645329085821e-02  -3.0943095100004439e-02  4.0207336069687370e-02  -4.5171350939930820e-02  4.5328898830885755e-02  -4.0700039795828861e-02  3.1824290956322866e-02  -1.9695703015560246e-02  5.6478653731873467e-03  8.7974387487008733e-03  -2.2100189980702123e-02  3.2871100088608315e-02  -4.0020457220935168e-02  4.2870426943308913e-02  -4.1218967652856438e-02  3.5349381783915536e-02  -2.5985940910149923e-02  1.4202209458924482e-02  -1.2939184722845340e-03  -1.1368092129471270e-02  2.2487622110378726e-02  -3.0978673407469379e-02  3.6072278194195492e-02  -3.7383980812202525e-02  3.4936365994618385e-02  -2.9136450016983093e-02  2.0712918571129460e-02  -1.0622498386031477e-02  -6.2288318635926615e-05  1.0270401184945587e-02  -1.9041359224980736e-02  2.5614783731669588e-02  -2.9492174901669967e-02  3.0466535018723033e-02  -2.8619502619790065e-02  2.4289403034130339e-02  -1.8016601351639818e-02  1.0474456224303517e-02  -2.3948681821032063e-03  -5.5030791345276322e-03  1.2574381588082261e-02  -1.8294467797962819e-02  2.2288334921441961e-02  -2.4342590095732683e-02  2.4402539998062727e-02  -2.2557829795427170e-02  1.9020716364349325e-02  -1.4100882892529204e-02  8.1798973406230491e-03  -1.6871293394713069e-03  4.1381397395897157e-03  -1.9983571831086133e-02  3.3669083511822490e-02  -4.3722296778686671e-02  4.9074669988806094e-02  -4.9178428467972206e-02  4.4063808504620341e-02  -3.4330587875654330e-02  2.1075503744794891e-02  -5.7645895232221632e-03  -9.9342367324385013e-03  2.4338589364890324e-02  -3.5937286731091977e-02  4.3553123235028621e-02  -4.6464677463034773e-02  4.4474248733187484e-02  -3.7915580939267342e-02  2.7602180501708189e-02  -1.4723894967233590e-02  7.0516813807737478e-04  1.2957629741433286e-02  -2.4860609569740826e-02  3.3839864580400426e-02  -3.9086150660733919e-02  4.0215328405345245e-02  -3.7288800083828316e-02  3.0784242511151663e-02  -2.1522662280351101e-02  1.0562506635696616e-02  9.2527684120628393e-04  -1.1786023245763990e-02  2.0999357444742506e-02  -2.7774108159063993e-02  3.1611434464008034e-02  -3.2331868280033878e-02  3.0066545515700351e-02  -2.5217046287582954e-02  1.8391494857553706e-02  -1.0326543799519484e-02  1.8054367109716181e-03  6.4184396682726358e-03  -1.3684999536835617e-02  1.9473029537605137e-02  -2.3425960727496968e-02  2.5358706785907938e-02  -2.5248682587232934e-02  2.3215548967099344e-02  -1.9494716425240758e-02  1.4409220442287604e-02  -8.3434178018279032e-03  1.7203303356561471e-03  -3.9553924052047433e-03  1.9099149898228897e-02  -3.2160408257402899e-02  4.1722148246458313e-02  -4.6760043690556641e-02  4.6755532757274162e-02  -4.1750432546766261e-02  3.2337222156498036e-02  -1.9586729969501244e-02  4.9222983742153240e-03  1.0044320512251688e-02  -2.3695801977265316e-02  3.4589394186375230e-02  -4.1613650446791661e-02  4.4104189537426099e-02  -4.1906121948863548e-02  3.5377333735187796e-02  -2.5333907579253977e-02  1.2945704647031380e-02  4.0427740081579899e-04  -1.3279365647954147e-02  2.4348506917756706e-02  -3.2527158614714689e-02  3.7084442520532480e-02  -3.7705854616481828e-02  3.4506535114680104e-02  -2.7996154100001478e-02  1.9002095841776145e-02  -8.5621562742324315e-03  -2.1991065475400343e-03  1.2195189945042177e-02  -2.0489326539991453e-02  2.6381287545326655e-02  -2.9461405179837290e-02  2.9628443466517641e-02  -2.7072555060653151e-02  2.2228643532996101e-02  -1.5708516401284962e-02  8.2219350001384080e-03  -4.9692447230250466e-04  -6.7914138174788811e-03  1.3076573801254533e-02  -1.7936712215398852e-02  2.1110170175952778e-02  -2.2492395663296780e-02  2.2118444456293910e-02  -2.0136529341944844e-02  1.6778334875250954e-02  -1.2331072937077369e-02  7.1147387489175840e-03  -1.4660701841372979e-03  3.2798719417028994e-03  -1.5834608258627533e-02  2.6636799345701147e-02  -3.4497240370042433e-02  3.8562088610573010e-02  -3.8408545101657844e-02  3.4089954069203454e-02  -2.6125372720857302e-02  1.5435351010850973e-02  -3.2320731503681643e-03  -9.1226322914337854e-03  2.0274252414833022e-02  -2.9028839939817249e-02  3.4484641957371165e-02  -3.6127127678245614e-02  3.3877125412554832e-02  -2.8087620554399395e-02  1.9491007930025984e-02  -9.1044600260339094e-03  -1.8941551459494073e-03  1.2304253421431587e-02  -2.1037734510387950e-02  2.7235675215655609e-02  -3.0353627137926911e-02  3.0206937038943935e-02  -2.6972694454997170e-02  2.1150291224719099e-02  -1.3487468951949005e-02  4.8825353826932776e-03  3.7242825801098796e-03  -1.1456831845406287e-02  1.7594030091542746e-02  -2.1636180843878455e-02  2.3340639705698354e-02  -2.2725100498499792e-02  2.0040939867590937e-02  -1.5722614412000738e-02  1.0321613022540220e-02  -4.4346560204159679e-03  -1.3643690949801236e-03  6.5807160135976303e-03  -1.0837757945981220e-02  1.3896066351626581e-02  -1.5653107486126826e-02  1.6126792218587795e-02  -1.5428076930560398e-02  1.3728780946734428e-02  -1.1230672786276461e-02  8.1407762876519636e-03  -4.6559970565261295e-03  9.5792394708509542e-04  -2.2011351496007180e-03  1.0622770634531917e-02  -1.7831109388163312e-02  2.3007459845176412e-02  -2.5572286211249146e-02  2.5252242226680086e-02  -2.2110165184284779e-02  1.6534630000302551e-02  -9.1906755591236768e-03  9.3808415670036964e-04  7.2724774020979264e-03  -1.4512547554984951e-02  1.9984326857725040e-02  -2.3111428132300261e-02  2.3601256493218873e-02  -2.1472059323226364e-02  1.7042191805689003e-02  -1.0883864940982891e-02  3.7479767192295094e-03  3.5299702636285204e-03  -1.0130803569936991e-02  1.5346922867659004e-02  -1.8660418814721157e-02  1.9795165786128319e-02  -1.8737558977927990e-02  1.5724699584261898e-02  -1.1202968262197998e-02  5.7635338823824166e-03  -6.3968216342392183e-05  -5.2535286939267489e-03  9.6368744831959868e-03  -1.2682841523217518e-02  1.4173356231042622e-02  -1.4086206494231972e-02  1.2580537227025115e-02  -9.9608162590000670e-03  6.6255879133033371e-03  -3.0089649699925228e-03  -4.7673598440773290e-04  3.4895487543877544e-03  -5.7917034968093997e-03  7.2653753091938868e-03  -7.9097971800735078e-03  7.8219685834185915e-03  -7.1654771432531784e-03  6.1334371180479571e-03  -4.9120414207641083e-03  3.6506920562927115e-03  -2.4432262387720518e-03  1.3226505648378135e-03  -2.6937484180622121e-04  8.5959453176805633e-04  -4.1421623740016157e-03  6.8910733193793096e-03  -8.7533868726958636e-03  9.4922520829508888e-03  -9.0176504095717848e-03  7.3976756451460245e-03  -4.8489014579262048e-03  1.7071863126998745e-03  1.6171230671459056e-03  -4.6935605358292484e-03  7.1281988825884933e-03  -8.6150465295844365e-03  8.9753779323688727e-03  -8.1798505373069895e-03  6.3506016357222266e-03  -3.7432228169064575e-03  7.1120983551068069e-04  2.3421826299873613e-03  -5.0181025542114970e-03  6.9749511609190525e-03  -7.9728436604817945e-03  7.9038044392682107e-03  -6.8038115217546073e-03  4.8453022518372508e-03  -2.3114161603747675e-03  -4.4428525797585828e-04  3.0469505908832422e-03  -5.1516142053693705e-03  6.4894108046846958e-03  -6.9025884157645672e-03  6.3636912651582741e-03  -4.9765152406569119e-03  2.9589750794679218e-03  -6.1051559273294807e-04  -1.7311981657638904e-03  3.7381481737422768e-03  -5.1376657815560070e-03  5.7496242605957378e-03  -5.5100346323220173e-03  4.4779112554514233e-03  -2.8246486046186550e-03  8.0761191407037426e-04  1.2681525503443567e-03  -3.0945415153958815e-03  4.4049575457572165e-03  -5.0124692695157893e-03  4.8361760526095766e-03  -3.9120868850500415e-03  2.3870403816202476e-03  -4.9660872789160533e-04  5.7202326102985556e-04  -2.7726274432327042e-03  4.7725015864974905e-03  -6.4225136645644576e-03  7.5922309161964869e-03  -8.1785908608896282e-03  8.1145210878781817e-03  -7.3768580763242542e-03  5.9926019891776410e-03  -4.0423527822965278e-03  1.6597672155333556e-03  9.7390101935308912e-04  -3.6406694568427152e-03  6.1019587279177263e-03  -8.1190999291448681e-03  9.4765783248099023e-03  -1.0005736157096131e-02  9.6062438156978344e-03  -8.2625510346929949e-03  6.0527995617256939e-03  -3.1483201627454313e-03  -1.9720150497272752e-04  3.6686225759681255e-03  -6.9187735324721484e-03  9.6037085171705640e-03  -1.1420126738393705e-02  1.2140765214894005e-02  -1.1643500339065390e-02  9.9303612796205094e-03  -7.1336262259141595e-03  3.5075502390779865e-03  5.9409074468498558e-04  -4.7527511614068145e-03  8.5287174231346349e-03  -1.1508902026770835e-02  1.3353472591534443e-02  -1.3835878297809322e-02  1.2871412445989669e-02  -1.0530629993094348e-02  7.0356050416179750e-03  -2.7389702236628546e-03  -1.9122984209167726e-03  6.4245485392271868e-03  -1.0311338501378145e-02  1.3147476882660417e-02  -1.4617014465445661e-02  1.4549594450888848e-02  -1.2940841522480345e-02  9.9542773310312346e-03  -5.9043716549332000e-03  1.2225282558995974e-03  -1.9113061412568161e-03  9.2403079735966787e-03  -1.5670817968014984e-02  2.0578054286267505e-02  -2.3486105779139177e-02  2.4114290240288126e-02  -2.2404309761480522e-02  1.8525568209633157e-02  -1.2858179881864518e-02  5.9554014538978168e-03  1.5107569137926906e-03  -8.8153435698830086e-03  1.5251202681077025e-02  -2.0197688009016661e-02  2.3180641867927263e-02  -2.3917825437656803e-02  2.2345451365439452e-02  -1.8623347521108783e-02  1.3118388738396356e-02  -6.3679554041866588e-03  -9.7289045532771414e-04  8.1952700053724049e-03  -1.4605126420777931e-02  1.9589965991027070e-02  -2.2677277953392028e-02  2.3579075431141027e-02  -2.2218393555312996e-02  1.8735357873422356e-02  -1.3472422029253354e-02  6.9403725501715925e-03  2.3148090250055072e-04  -7.3560408500179955e-03  1.3754205821838819e-02  -1.8819410864331549e-02  2.2074816982565863e-02  -2.3217801290809033e-02  2.2147652768474170e-02  -1.8974001054244009e-02  1.4005339968379086e-02  -7.7188784098867029e-03  7.1468792486814906e-04  6.3414452671111286e-03  -1.2781038857225521e-02  1.7995876476434126e-02  -2.1495034398870037e-02  2.2950685058429000e-02  -2.2228461679908100e-02  1.9399621210380438e-02  -1.4733938881726300e-02  8.6740525341376072e-03  -1.7936863582467299e-03  2.9898605247606785e-03  -1.4447432761703386e-02  2.4430837239408795e-02  -3.1924606915515498e-02  3.6172193007205776e-02  -3.6753721201383226e-02  3.3627972203331136e-02  -2.7134326668398309e-02  1.7954765104358381e-02  -7.0403185557947326e-03  -4.4898562955866927e-03  1.5465761267758131e-02  -2.4787584277957696e-02  3.1537650625737740e-02  -3.5071672663107324e-02  3.5080101910446214e-02  -3.1613761680782643e-02  2.5071861061389616e-02  -1.6154518989488956e-02  5.7856168023030863e-03  4.9852462119407831e-03  -1.5090992781773305e-02  2.3554080870736266e-02  -2.9581385339044999e-02  3.2637694101810250e-02  -3.2491125925319699e-02  2.9226928808720284e-02  -2.3229498636406384e-02  1.5135692634319124e-02  -5.7652675285776089e-03  -3.9637188459977065e-03  1.3125607517122849e-02  -2.0874876357150192e-02  2.6522646795912035e-02  -2.9595254192501416e-02  2.9870298899615955e-02  -2.7388012404743527e-02  2.2438221846872129e-02  -1.5525427475962890e-02  7.3163233403375268e-03  1.4246423955339121e-03  -9.9054190296297140e-03  1.7375926856439808e-02  -2.3191260988695828e-02  2.6863669060954960e-02  -2.8099678945156161e-02  2.6820146581489842e-02  -2.3162417124465769e-02  1.7465140533866677e-02  -1.0237474264891860e-02  2.1153941722177861e-03  -3.6749607476505033e-03  1.7753005069545795e-02  -2.9972095076261585e-02  3.9057987355616261e-02  -4.4072511097110655e-02  4.4512725036791150e-02  -4.0362174954649624e-02  3.2088919969126523e-02  -2.0591008070383766e-02  7.0959557219395838e-03  6.9741464849327603e-03  -2.0156602792158262e-02  3.1103970356087651e-02  -3.8724716092272952e-02  4.2293611597254026e-02  -4.1520493694807113e-02  3.6570907228399500e-02  -2.8037641039406820e-02  1.6867619274629441e-02  -4.2533986150263920e-03  -8.4978888393985336e-03  2.0103282485004519e-02  -2.9435281524514023e-02  3.5631950886323260e-02  -3.8175014727493115e-02  3.6929079320124895e-02  -3.2139668331774000e-02  2.4392318168043818e-02  -1.4539046404412439e-02  3.6016380943861503e-03  7.3369103492612322e-03  -1.7240925378622655e-02  2.5219518392842172e-02  -3.0603886901430920e-02  3.2998164122814859e-02  -3.2300772087573641e-02  2.8696519970298710e-02  -2.2622635427341473e-02  1.4714225336740494e-02  -5.7361316010351082e-03  -3.4912864152911306e-03  1.2165207289149013e-02  -1.9566009979798994e-02  2.5110809007291728e-02  -2.8391861436169643e-02  2.9198574314398752e-02  -2.7523357373447473e-02  2.3552737095319361e-02  -1.7645908069765924e-02  1.0303269009203857e-02  -2.1275486339858607e-03  3.8863097300903958e-03  -1.8769446717689372e-02  3.1643409674258459e-02  -4.1136627902676789e-02  4.6249360054106757e-02  -4.6461855804107222e-02  4.1788243702556523e-02  -3.2770421740881406e-02  2.0413191858591348e-02  -6.0686346218987884e-03  -8.7165357709114693e-03  2.2372834605683851e-02  -3.3479368495050801e-02  4.0915393954800316e-02  -4.3975434567680612e-02  4.2435867661038879e-02  -3.6566743705429117e-02  2.7089031224861258e-02  -1.5083708577904364e-02  1.8644178302852940e-03  1.1170847944421568e-02  -2.2691726849908295e-02  3.1574100253992099e-02  -3.7010525371553409e-02  3.8581537488986101e-02  -3.6281830639099219e-02  3.0500741027128981e-02  -2.1961663198292448e-02  1.1629410460682421e-02  -5.9760665252952551e-04  -1.0030326780900305e-02  1.9253230492343509e-02  -2.6265709066382512e-02  3.0524455886587903e-02  -3.1782545109041910e-02  3.0090856678719052e-02  -2.5769564026532233e-02  1.9355674372471744e-02  -1.1534649100676390e-02  3.0649862079118865e-03  5.2956698254365761e-03  -1.2855647732013503e-02  1.9040393538600285e-02  -2.3426828246587459e-02  2.5760482570087166e-02  -2.5956995804901292e-02  2.4090991299473188e-02  -2.0376042353362045e-02  1.5139424572366359e-02  -8.7947309649183455e-03  1.8144251408560989e-03  -3.6057484840315551e-03  1.7409480404282151e-02  -2.9301816405542812e-02  3.7983960593254658e-02  -4.2520034204041164e-02  4.2441032362489389e-02  -3.7794474783851860e-02  2.9134346440475668e-02  -1.7453051139291006e-02  4.0639575459120222e-03  9.5511312564271252e-03  -2.1911298407436199e-02  3.1702640897612516e-02  -3.7921955236024645e-02  3.9981768648023372e-02  -3.7765430343540692e-02  3.1627152691724912e-02  -2.2338533907766852e-02  1.0989376483286217e-02  1.1442191858006758e-03  -1.2748065290995770e-02  2.2616632873193213e-02  -2.9781409260019789e-02  3.3606804875715331e-02  -3.3843995798293114e-02  3.0638520222398206e-02  -2.4493139991181637e-02  1.6192722615621050e-02  -6.7020513555465597e-03  -2.9499291189895092e-03  1.1785133212883075e-02  -1.8977340027834466e-02  2.3928507506361097e-02  -2.6313479447500891e-02  2.6090541482359224e-02  -2.3479655276378082e-02  1.8914008118899959e-02  -1.2973291692556118e-02  6.3085777742884971e-03  4.3131656017046497e-04  -6.6633697013980921e-03  1.1917529164802749e-02  -1.5864198040625398e-02  1.8321823722177114e-02  -1.9247169739341506e-02  1.8712943703146811e-02  -1.6878580183423850e-02  1.3960044853871961e-02  -1.0203609094448075e-02  5.8668690745131155e-03  -1.2081907791119614e-03  2.8787061816252374e-03  -1.3893091484346205e-02  2.3323888266453395e-02  -3.0102207539253262e-02  3.3470749526114923e-02  -3.3071189587261726e-02  2.8983394612979992e-02  -2.1712041536473391e-02  1.2122709581269837e-02  -1.3357101656440316e-03  -9.4089753016178019e-03  1.8898894303472840e-02  -2.6090449204015782e-02  3.0227349033426474e-02  -3.0922299562553979e-02  2.8192836774437090e-02  -2.2448048815474096e-02  1.4429056866886903e-02  -5.1117557312963854e-03  -4.4152527860191445e-03  1.3081907335496495e-02  -1.9960832337048519e-02  2.4369512919073327e-02  -2.5938878637838041e-02  2.4641289383926891e-02  -2.0776259728640986e-02  1.4917622496192214e-02  -7.8305192654237275e-03  3.7003123241726533e-04  6.6249745242421216e-03  -1.2429277209090086e-02  1.6508331533229163e-02  -1.8566477245910255e-02  1.8562127196779816e-02  -1.6690290965079454e-02  1.3337067417657590e-02  -9.0141618723665416e-03  4.2836273741873251e-03  3.1634618699864791e-04  -4.3346810193060697e-03  7.4520311748335014e-03  -9.5023064086639606e-03  1.0470290715909578e-02  -1.0468106381641020e-02  9.6962243563758453e-03  -8.3966492024962376e-03  6.8065699383549573e-03  -5.1201083757625200e-