<?xml version="1.0"?>
<VTKFile type="UnstructuredGrid"  version="0.1"  >
<UnstructuredGrid>
<Piece  NumberOfPoints="5101" NumberOfCells="10000">
<Points>
<DataArray  type="Float64"  NumberOfComponents="3"  format="ascii">0 0 0  0.2 0 0  0.4 0 0  0.6 0 0  0.8 0 0  1 0 0  1.2 0 0  1.4 0 0  1.6 0 0  1.8 0 0  2 0 0  2.2 0 0  2.4 0 0  2.6 0 0  2.8 0 0  3 0 0  3.2 0 0  3.4 0 0  3.6 0 0  3.8 0 0  4 0 0  4.2 0 0  4.4 0 0  4.6 0 0  4.8 0 0  5 0 0  5.2 0 0  5.4 0 0  5.6 0 0  5.8 0 0  6 0 0  6.2 0 0  6.4 0 0  6.6 0 0  6.8 0 0  7 0 0  7.2 0 0  7.4 0 0  7.6 0 0  7.8 0 0  8 0 0  8.199999999999999 0 0  8.4 0 0  8.6 0 0  8.800000000000001 0 0  9 0 0  9.199999999999999 0 0  9.4 0 0  9.6 0 0  9.800000000000001 0 0  10 0 0  0 0.2 0  0.2 0.2 0  0.4 0.2 0  0.6 0.2 0  0.8 0.2 0  1 0.2 0  1.2 0.2 0  1.4 0.2 0  1.6 0.2 0  1.8 0.2 0  2 0.2 0  2.2 0.2 0  2.4 0.2 0  2.6 0.2 0  2.8 0.2 0  3 0.2 0  3.2 0.2 0  3.4 0.2 0  3.6 0.2 0  3.8 0.2 0  4 0.2 0  4.2 0.2 0  4.4 0.2 0  4.6 0.2 0  4.8 0.2 0  5 0.2 0  5.2 0.2 0  5.4 0.2 0  5.6 0.2 0  5.8 0.2 0  6 0.2 0  6.2 0.2 0  6.4 0.2 0  6.6 0.2 0  6.8 0.2 0  7 0.2 0  7.2 0.2 0  7.4 0.2 0  7.6 0.2 0  7.8 0.2 0  8 0.2 0  8.199999999999999 0.2 0  8.4 0.2 0  8.6 0.2 0  8.800000000000001 0.2 0  9 0.2 0  9.199999999999999 0.2 0  9.4 0.2 0  9.6 0.2 0  9.800000000000001 0.2 0  10 0.2 0  0 0.4 0  0.2 0.4 0  0.4 0.4 0  0.6 0.4 0  0.8 0.4 0  1 0.4 0  1.2 0.4 0  1.4 0.4 0  1.6 0.4 0  1.8 0.4 0  2 0.4 0  2.2 0.4 0  2.4 0.4 0  2.6 0.4 0  2.8 0.4 0  3 0.4 0  3.2 0.4 0  3.4 0.4 0  3.6 0.4 0  3.8 0.4 0  4 0.4 0  4.2 0.4 0  4.4 0.4 0  4.6 0.4 0  4.8 0.4 0  5 0.4 0  5.2 0.4 0  5.4 0.4 0  5.6 0.4 0  5.8 0.4 0  6 0.4 0  6.2 0.4 0  6.4 0.4 0  6.6 0.4 0  6.8 0.4 0  7 0.4 0  7.2 0.4 0  7.4 0.4 0  7.6 0.4 0  7.8 0.4 0  8 0.4 0  8.199999999999999 0.4 0  8.4 0.4 0  8.6 0.4 0  8.800000000000001 0.4 0  9 0.4 0  9.199999999999999 0.4 0  9.4 0.4 0  9.6 0.4 0  9.800000000000001 0.4 0  10 0.4 0  0 0.6 0  0.2 0.6 0  0.4 0.6 0  0.6 0.6 0  0.8 0.6 0  1 0.6 0  1.2 0.6 0  1.4 0.6 0  1.6 0.6 0  1.8 0.6 0  2 0.6 0  2.2 0.6 0  2.4 0.6 0  2.6 0.6 0  2.8 0.6 0  3 0.6 0  3.2 0.6 0  3.4 0.6 0  3.6 0.6 0  3.8 0.6 0  4 0.6 0  4.2 0.6 0  4.4 0.6 0  4.6 0.6 0  4.8 0.6 0  5 0.6 0  5.2 0.6 0  5.4 0.6 0  5.6 0.6 0  5.8 0.6 0  6 0.6 0  6.2 0.6 0  6.4 0.6 0  6.6 0.6 0  6.8 0.6 0  7 0.6 0  7.2 0.6 0  7.4 0.6 0  7.6 0.6 0  7.8 0.6 0  8 0.6 0  8.199999999999999 0.6 0  8.4 0.6 0  8.6 0.6 0  8.800000000000001 0.6 0  9 0.6 0  9.199999999999999 0.6 0  9.4 0.6 0  9.6 0.6 0  9.800000000000001 0.6 0  10 0.6 0  0 0.8 0  0.2 0.8 0  0.4 0.8 0  0.6 0.8 0  0.8 0.8 0  1 0.8 0  1.2 0.8 0  1.4 0.8 0  1.6 0.8 0  1.8 0.8 0  2 0.8 0  2.2 0.8 0  2.4 0.8 0  2.6 0.8 0  2.8 0.8 0  3 0.8 0  3.2 0.8 0  3.4 0.8 0  3.6 0.8 0  3.8 0.8 0  4 0.8 0  4.2 0.8 0  4.4 0.8 0  4.6 0.8 0  4.8 0.8 0  5 0.8 0  5.2 0.8 0  5.4 0.8 0  5.6 0.8 0  5.8 0.8 0  6 0.8 0  6.2 0.8 0  6.4 0.8 0  6.6 0.8 0  6.8 0.8 0  7 0.8 0  7.2 0.8 0  7.4 0.8 0  7.6 0.8 0  7.8 0.8 0  8 0.8 0  8.199999999999999 0.8 0  8.4 0.8 0  8.6 0.8 0  8.800000000000001 0.8 0  9 0.8 0  9.199999999999999 0.8 0  9.4 0.8 0  9.6 0.8 0  9.800000000000001 0.8 0  10 0.8 0  0 1 0  0.2 1 0  0.4 1 0  0.6 1 0  0.8 1 0  1 1 0  1.2 1 0  1.4 1 0  1.6 1 0  1.8 1 0  2 1 0  2.2 1 0  2.4 1 0  2.6 1 0  2.8 1 0  3 1 0  3.2 1 0  3.4 1 0  3.6 1 0  3.8 1 0  4 1 0  4.2 1 0  4.4 1 0  4.6 1 0  4.8 1 0  5 1 0  5.2 1 0  5.4 1 0  5.6 1 0  5.8 1 0  6 1 0  6.2 1 0  6.4 1 0  6.6 1 0  6.8 1 0  7 1 0  7.2 1 0  7.4 1 0  7.6 1 0  7.8 1 0  8 1 0  8.199999999999999 1 0  8.4 1 0  8.6 1 0  8.800000000000001 1 0  9 1 0  9.199999999999999 1 0  9.4 1 0  9.6 1 0  9.800000000000001 1 0  10 1 0  0 1.2 0  0.2 1.2 0  0.4 1.2 0  0.6 1.2 0  0.8 1.2 0  1 1.2 0  1.2 1.2 0  1.4 1.2 0  1.6 1.2 0  1.8 1.2 0  2 1.2 0  2.2 1.2 0  2.4 1.2 0  2.6 1.2 0  2.8 1.2 0  3 1.2 0  3.2 1.2 0  3.4 1.2 0  3.6 1.2 0  3.8 1.2 0  4 1.2 0  4.2 1.2 0  4.4 1.2 0  4.6 1.2 0  4.8 1.2 0  5 1.2 0  5.2 1.2 0  5.4 1.2 0  5.6 1.2 0  5.8 1.2 0  6 1.2 0  6.2 1.2 0  6.4 1.2 0  6.6 1.2 0  6.8 1.2 0  7 1.2 0  7.2 1.2 0  7.4 1.2 0  7.6 1.2 0  7.8 1.2 0  8 1.2 0  8.199999999999999 1.2 0  8.4 1.2 0  8.6 1.2 0  8.800000000000001 1.2 0  9 1.2 0  9.199999999999999 1.2 0  9.4 1.2 0  9.6 1.2 0  9.800000000000001 1.2 0  10 1.2 0  0 1.4 0  0.2 1.4 0  0.4 1.4 0  0.6 1.4 0  0.8 1.4 0  1 1.4 0  1.2 1.4 0  1.4 1.4 0  1.6 1.4 0  1.8 1.4 0  2 1.4 0  2.2 1.4 0  2.4 1.4 0  2.6 1.4 0  2.8 1.4 0  3 1.4 0  3.2 1.4 0  3.4 1.4 0  3.6 1.4 0  3.8 1.4 0  4 1.4 0  4.2 1.4 0  4.4 1.4 0  4.6 1.4 0  4.8 1.4 0  5 1.4 0  5.2 1.4 0  5.4 1.4 0  5.6 1.4 0  5.8 1.4 0  6 1.4 0  6.2 1.4 0  6.4 1.4 0  6.6 1.4 0  6.8 1.4 0  7 1.4 0  7.2 1.4 0  7.4 1.4 0  7.6 1.4 0  7.8 1.4 0  8 1.4 0  8.199999999999999 1.4 0  8.4 1.4 0  8.6 1.4 0  8.800000000000001 1.4 0  9 1.4 0  9.199999999999999 1.4 0  9.4 1.4 0  9.6 1.4 0  9.800000000000001 1.4 0  10 1.4 0  0 1.6 0  0.2 1.6 0  0.4 1.6 0  0.6 1.6 0  0.8 1.6 0  1 1.6 0  1.2 1.6 0  1.4 1.6 0  1.6 1.6 0  1.8 1.6 0  2 1.6 0  2.2 1.6 0  2.4 1.6 0  2.6 1.6 0  2.8 1.6 0  3 1.6 0  3.2 1.6 0  3.4 1.6 0  3.6 1.6 0  3.8 1.6 0  4 1.6 0  4.2 1.6 0  4.4 1.6 0  4.6 1.6 0  4.8 1.6 0  5 1.6 0  5.2 1.6 0  5.4 1.6 0  5.6 1.6 0  5.8 1.6 0  6 1.6 0  6.2 1.6 0  6.4 1.6 0  6.6 1.6 0  6.8 1.6 0  7 1.6 0  7.2 1.6 0  7.4 1.6 0  7.6 1.6 0  7.8 1.6 0  8 1.6 0  8.199999999999999 1.6 0  8.4 1.6 0  8.6 1.6 0  8.800000000000001 1.6 0  9 1.6 0  9.199999999999999 1.6 0  9.4 1.6 0  9.6 1.6 0  9.800000000000001 1.6 0  10 1.6 0  0 1.8 0  0.2 1.8 0  0.4 1.8 0  0.6 1.8 0  0.8 1.8 0  1 1.8 0  1.2 1.8 0  1.4 1.8 0  1.6 1.8 0  1.8 1.8 0  2 1.8 0  2.2 1.8 0  2.4 1.8 0  2.6 1.8 0  2.8 1.8 0  3 1.8 0  3.2 1.8 0  3.4 1.8 0  3.6 1.8 0  3.8 1.8 0  4 1.8 0  4.2 1.8 0  4.4 1.8 0  4.6 1.8 0  4.8 1.8 0  5 1.8 0  5.2 1.8 0  5.4 1.8 0  5.6 1.8 0  5.8 1.8 0  6 1.8 0  6.2 1.8 0  6.4 1.8 0  6.6 1.8 0  6.8 1.8 0  7 1.8 0  7.2 1.8 0  7.4 1.8 0  7.6 1.8 0  7.8 1.8 0  8 1.8 0  8.199999999999999 1.8 0  8.4 1.8 0  8.6 1.8 0  8.800000000000001 1.8 0  9 1.8 0  9.199999999999999 1.8 0  9.4 1.8 0  9.6 1.8 0  9.800000000000001 1.8 0  10 1.8 0  0 2 0  0.2 2 0  0.4 2 0  0.6 2 0  0.8 2 0  1 2 0  1.2 2 0  1.4 2 0  1.6 2 0  1.8 2 0  2 2 0  2.2 2 0  2.4 2 0  2.6 2 0  2.8 2 0  3 2 0  3.2 2 0  3.4 2 0  3.6 2 0  3.8 2 0  4 2 0  4.2 2 0  4.4 2 0  4.6 2 0  4.8 2 0  5 2 0  5.2 2 0  5.4 2 0  5.6 2 0  5.8 2 0  6 2 0  6.2 2 0  6.4 2 0  6.6 2 0  6.8 2 0  7 2 0  7.2 2 0  7.4 2 0  7.6 2 0  7.8 2 0  8 2 0  8.199999999999999 2 0  8.4 2 0  8.6 2 0  8.800000000000001 2 0  9 2 0  9.199999999999999 2 0  9.4 2 0  9.6 2 0  9.800000000000001 2 0  10 2 0  0 2.2 0  0.2 2.2 0  0.4 2.2 0  0.6 2.2 0  0.8 2.2 0  1 2.2 0  1.2 2.2 0  1.4 2.2 0  1.6 2.2 0  1.8 2.2 0  2 2.2 0  2.2 2.2 0  2.4 2.2 0  2.6 2.2 0  2.8 2.2 0  3 2.2 0  3.2 2.2 0  3.4 2.2 0  3.6 2.2 0  3.8 2.2 0  4 2.2 0  4.2 2.2 0  4.4 2.2 0  4.6 2.2 0  4.8 2.2 0  5 2.2 0  5.2 2.2 0  5.4 2.2 0  5.6 2.2 0  5.8 2.2 0  6 2.2 0  6.2 2.2 0  6.4 2.2 0  6.6 2.2 0  6.8 2.2 0  7 2.2 0  7.2 2.2 0  7.4 2.2 0  7.6 2.2 0  7.8 2.2 0  8 2.2 0  8.199999999999999 2.2 0  8.4 2.2 0  8.6 2.2 0  8.800000000000001 2.2 0  9 2.2 0  9.199999999999999 2.2 0  9.4 2.2 0  9.6 2.2 0  9.800000000000001 2.2 0  10 2.2 0  0 2.4 0  0.2 2.4 0  0.4 2.4 0  0.6 2.4 0  0.8 2.4 0  1 2.4 0  1.2 2.4 0  1.4 2.4 0  1.6 2.4 0  1.8 2.4 0  2 2.4 0  2.2 2.4 0  2.4 2.4 0  2.6 2.4 0  2.8 2.4 0  3 2.4 0  3.2 2.4 0  3.4 2.4 0  3.6 2.4 0  3.8 2.4 0  4 2.4 0  4.2 2.4 0  4.4 2.4 0  4.6 2.4 0  4.8 2.4 0  5 2.4 0  5.2 2.4 0  5.4 2.4 0  5.6 2.4 0  5.8 2.4 0  6 2.4 0  6.2 2.4 0  6.4 2.4 0  6.6 2.4 0  6.8 2.4 0  7 2.4 0  7.2 2.4 0  7.4 2.4 0  7.6 2.4 0  7.8 2.4 0  8 2.4 0  8.199999999999999 2.4 0  8.4 2.4 0  8.6 2.4 0  8.800000000000001 2.4 0  9 2.4 0  9.199999999999999 2.4 0  9.4 2.4 0  9.6 2.4 0  9.800000000000001 2.4 0  10 2.4 0  0 2.6 0  0.2 2.6 0  0.4 2.6 0  0.6 2.6 0  0.8 2.6 0  1 2.6 0  1.2 2.6 0  1.4 2.6 0  1.6 2.6 0  1.8 2.6 0  2 2.6 0  2.2 2.6 0  2.4 2.6 0  2.6 2.6 0  2.8 2.6 0  3 2.6 0  3.2 2.6 0  3.4 2.6 0  3.6 2.6 0  3.8 2.6 0  4 2.6 0  4.2 2.6 0  4.4 2.6 0  4.6 2.6 0  4.8 2.6 0  5 2.6 0  5.2 2.6 0  5.4 2.6 0  5.6 2.6 0  5.8 2.6 0  6 2.6 0  6.2 2.6 0  6.4 2.6 0  6.6 2.6 0  6.8 2.6 0  7 2.6 0  7.2 2.6 0  7.4 2.6 0  7.6 2.6 0  7.8 2.6 0  8 2.6 0  8.199999999999999 2.6 0  8.4 2.6 0  8.6 2.6 0  8.800000000000001 2.6 0  9 2.6 0  9.199999999999999 2.6 0  9.4 2.6 0  9.6 2.6 0  9.800000000000001 2.6 0  10 2.6 0  0 2.8 0  0.2 2.8 0  0.4 2.8 0  0.6 2.8 0  0.8 2.8 0  1 2.8 0  1.2 2.8 0  1.4 2.8 0  1.6 2.8 0  1.8 2.8 0  2 2.8 0  2.2 2.8 0  2.4 2.8 0  2.6 2.8 0  2.8 2.8 0  3 2.8 0  3.2 2.8 0  3.4 2.8 0  3.6 2.8 0  3.8 2.8 0  4 2.8 0  4.2 2.8 0  4.4 2.8 0  4.6 2.8 0  4.8 2.8 0  5 2.8 0  5.2 2.8 0  5.4 2.8 0  5.6 2.8 0  5.8 2.8 0  6 2.8 0  6.2 2.8 0  6.4 2.8 0  6.6 2.8 0  6.8 2.8 0  7 2.8 0  7.2 2.8 0  7.4 2.8 0  7.6 2.8 0  7.8 2.8 0  8 2.8 0  8.199999999999999 2.8 0  8.4 2.8 0  8.6 2.8 0  8.800000000000001 2.8 0  9 2.8 0  9.199999999999999 2.8 0  9.4 2.8 0  9.6 2.8 0  9.800000000000001 2.8 0  10 2.8 0  0 3 0  0.2 3 0  0.4 3 0  0.6 3 0  0.8 3 0  1 3 0  1.2 3 0  1.4 3 0  1.6 3 0  1.8 3 0  2 3 0  2.2 3 0  2.4 3 0  2.6 3 0  2.8 3 0  3 3 0  3.2 3 0  3.4 3 0  3.6 3 0  3.8 3 0  4 3 0  4.2 3 0  4.4 3 0  4.6 3 0  4.8 3 0  5 3 0  5.2 3 0  5.4 3 0  5.6 3 0  5.8 3 0  6 3 0  6.2 3 0  6.4 3 0  6.6 3 0  6.8 3 0  7 3 0  7.2 3 0  7.4 3 0  7.6 3 0  7.8 3 0  8 3 0  8.199999999999999 3 0  8.4 3 0  8.6 3 0  8.800000000000001 3 0  9 3 0  9.199999999999999 3 0  9.4 3 0  9.6 3 0  9.800000000000001 3 0  10 3 0  0 3.2 0  0.2 3.2 0  0.4 3.2 0  0.6 3.2 0  0.8 3.2 0  1 3.2 0  1.2 3.2 0  1.4 3.2 0  1.6 3.2 0  1.8 3.2 0  2 3.2 0  2.2 3.2 0  2.4 3.2 0  2.6 3.2 0  2.8 3.2 0  3 3.2 0  3.2 3.2 0  3.4 3.2 0  3.6 3.2 0  3.8 3.2 0  4 3.2 0  4.2 3.2 0  4.4 3.2 0  4.6 3.2 0  4.8 3.2 0  5 3.2 0  5.2 3.2 0  5.4 3.2 0  5.6 3.2 0  5.8 3.2 0  6 3.2 0  6.2 3.2 0  6.4 3.2 0  6.6 3.2 0  6.8 3.2 0  7 3.2 0  7.2 3.2 0  7.4 3.2 0  7.6 3.2 0  7.8 3.2 0  8 3.2 0  8.199999999999999 3.2 0  8.4 3.2 0  8.6 3.2 0  8.800000000000001 3.2 0  9 3.2 0  9.199999999999999 3.2 0  9.4 3.2 0  9.6 3.2 0  9.800000000000001 3.2 0  10 3.2 0  0 3.4 0  0.2 3.4 0  0.4 3.4 0  0.6 3.4 0  0.8 3.4 0  1 
[...]
<PointData  Scalars="f_14"> 
<DataArray  type="Float64"  Name="f_14"  format="ascii">9.5732004295455575e-01  9.5431276777141893e-01  9.4664970243169333e-01  9.3612819103949629e-01  9.2411337165489671e-01  9.1157166920529475e-01  8.9916624956837188e-01  8.8733904597658197e-01  8.7637142386932421e-01  8.6642737903525180e-01  8.5758462710346928e-01  8.4985751839236934e-01  8.4321450800309428e-01  8.3759190225885993e-01  8.3290490617697965e-01  8.2905655349801854e-01  8.2594485175761467e-01  8.2346836104682541e-01  8.2153039307255860e-01  8.2004202385285374e-01  8.1892412876543352e-01  8.1810865558429513e-01  8.1753934315027654e-01  8.1717207117531143e-01  8.1697499474017743e-01  8.1692858044754446e-01  8.1702562404289236e-01  8.1727129389320563e-01  8.1768321144816380e-01  8.1829154778782442e-01  8.1913908312792050e-01  8.2028114261927720e-01  8.2178528706578702e-01  8.2373060321921721e-01  8.2620640888137797e-01  8.2931016808609825e-01  8.3314440543811863e-01  8.3781241703188425e-01  8.4341259187644613e-01  8.5003116526912814e-01  8.5773319385003577e-01  8.6655142783511563e-01  8.7647250553577360e-01  8.8741944975077336e-01  8.9922874610406367e-01  9.1161927140493648e-01  9.2414913349951522e-01  9.3615505913579045e-01  9.4667043009576857e-01  9.5432989938894464e-01  9.5733597401261827e-01  9.5431407788238209e-01  9.5305056214159867e-01  9.4800242958395509e-01  9.3982321484751341e-01  9.2972065923929537e-01  9.1870222106043131e-01  9.0750539558767429e-01  8.9664042656804277e-01  8.8644292273977210e-01  8.7711802361881785e-01  8.6877430848187276e-01  8.6144947715272668e-01  8.5512999605210838e-01  8.4976640673302928e-01  8.4528543646977039e-01  8.4159962723811010e-01  8.3861493212433436e-01  8.3623658660827871e-01  8.3437350354868001e-01  8.3294142557503703e-01  8.3186506763333878e-01  8.3107947809272198e-01  8.3053083172454312e-01  8.3017684168493322e-01  8.2998694373038517e-01  8.2994236860397397e-01  8.3003618138114488e-01  8.3027333147669513e-01  8.3067072422180277e-01  8.3125729340974419e-01  8.3207402245745654e-01  8.3317382864551659e-01  8.3462119020288794e-01  8.3649136135174618e-01  8.3886898903500473e-01  8.4184592103487976e-01  8.4551798184308580e-01  8.4998048966034068e-01  8.5532228796918075e-01  8.6161805068325981e-01  8.6891856148007462e-01  8.7723852586873696e-01  8.8654120588504837e-01  8.9671874177413957e-01  9.0756646437891597e-01  9.1874900260877845e-01  9.2975615273654799e-01  9.3985030976411965e-01  9.4802381136393421e-01  9.5306867462781086e-01  9.5433113575955197e-01  9.4665507780835290e-01  9.4800646714506653e-01  9.4793440676924878e-01  9.4475352873499741e-01  9.3896230071478759e-01  9.3147990940175163e-01  9.2313730989880671e-01  9.1457037683325348e-01  9.0622752191031064e-01  8.9840422029446176e-01  8.9127868916471698e-01  8.8494205091068334e-01  8.7942230067421023e-01  8.7470298736091168e-01  8.7073770899291891e-01  8.6746133110425150e-01  8.6479860499769579e-01  8.6267068846567008e-01  8.6099996285672475e-01  8.5971347754143768e-01  8.5874531359128992e-01  8.5803812663378509e-01  8.5754409584976143e-01  8.5722546948477774e-01  8.5705485818736593e-01  8.5701538838770186e-01  8.5710079091109648e-01  8.5731546607180298e-01  8.5767453530028204e-01  8.5820385959505663e-01  8.5893997499332908e-01  8.5992986330126076e-01  8.6123044186321096e-01  8.6290761977727770e-01  8.6503473145239240e-01  8.6769012394115930e-01  8.7095364311458945e-01  8.7490173304566898e-01  8.7960082447210686e-01  8.8509862574736486e-01  8.9141282089389440e-01  8.9851650449068154e-01  9.0631944983485235e-01  9.1464411246273725e-01  9.2319546010021447e-01  9.3152530663730371e-01  9.3899781251858516e-01  9.4478190131018480e-01  9.4795814330938011e-01  9.4802773141126340e-01  9.4667560768511905e-01  9.3614104020428068e-01  9.3983463178056070e-01  9.4476075252363612e-01  9.4710855134261274e-01  9.4638717982183973e-01  9.4321890117935747e-01  9.3843626546569670e-01  9.3277483616292156e-01  9.2679786422809385e-01  9.2090251660879874e-01  9.1534944885227665e-01  9.1029473068548439e-01  9.0581755023902100e-01  9.0194243889111880e-01  8.9865650058391333e-01  8.9592253549890732e-01  8.9368890856431471e-01  8.9189686623652331e-01  8.9048586336577074e-01  8.8939735141506360e-01  8.8857739606324171e-01  8.8797842639163427e-01  8.8756036161568119e-01  8.8729131059566146e-01  8.8714799293708102e-01  8.8711598857733798e-01  8.8718988572052870e-01  8.8737336459619798e-01  8.8767922568178270e-01  8.8812934390021525e-01  8.8875450268208644e-01  8.8959403159675021e-01  8.9069513701685998e-01  8.9211177629992544e-01  8.9390288221033154e-01  8.9612969569710510e-01  8.9885191037060785e-01  9.0212226703486276e-01  9.0597915372142435e-01  9.1043665603038326e-01  9.1547136044494570e-01  9.2100506527988668e-01  9.2688251297819657e-01  9.3284366139336172e-01  9.3849175100329396e-01  9.4326373858647816e-01  9.4642408227713781e-01  9.4714008067330602e-01  9.4478915164431576e-01  9.3986165103195063e-01  9.3616775098219707e-01  9.2413845900599045e-01  9.2974408832890054e-01  9.3898103682838241e-01  9.4639823466841577e-01  9.5055872344263614e-01  9.5168775050250798e-01  9.5052944939502082e-01  9.4786616643436516e-01  9.4435062514099655e-01  9.4047151472370560e-01  9.3656895675388707e-01  9.3286395589914684e-01  9.2948786314187404e-01  9.2650732884621467e-01  9.2394398903686970e-01  9.2178944023285314e-01  9.2001637999537966e-01  9.1858675550382596e-01  9.1745762804954534e-01  9.1658532061087183e-01  9.1592829506919760e-01  9.1544910743591124e-01  9.1511570950159260e-01  9.1490229930067191e-01  9.1478986783918925e-01  9.1476654394007395e-01  9.1482780152271981e-01  9.1497656266798255e-01  9.1522320344255592e-01  9.1558544517312412e-01  9.1608808887849857e-01  9.1676252211810350e-01  9.1764589314023626e-01  9.1877980488006539e-01  9.2020832927668539e-01  9.2197507849903737e-01  9.2411899099558681e-01  9.2666839257106770e-01  9.2963277191912863e-01  9.3299156866227939e-01  9.3667913650645740e-01  9.4056500790837028e-01  9.4442890672552349e-01  9.4793126514099801e-01  9.5058376463955696e-01  9.5173386712461217e-01  9.5059922269110886e-01  9.4643549193823717e-01  9.3901699281362305e-01  9.2977998682662522e-01  9.2417456042036339e-01  9.1161595423206032e-01  9.1874440240488553e-01  9.3151631362601151e-01  9.4324634576657340e-01  9.5170321346892628e-01  9.5671499950019012e-01  9.5889156146473198e-01  9.5901882823348250e-01  9.5780958899990176e-01  9.5582645767500729e-01  9.5347897869121567e-01  9.5104727472952200e-01  9.4871122078091619e-01  9.4657701260958127e-01  9.4469876137948350e-01  9.4309507752388244e-01  9.4176139359594835e-01  9.4067892235377037e-01  9.3982106042124169e-01  9.3915790029071300e-01  9.3865936806834738e-01  9.3829738017420550e-01  9.3804731132298202e-01  9.3788898563969625e-01  9.3780733916242942e-01  9.3779285219026765e-01  9.3784181130311228e-01  9.3795643080945368e-01  9.3814483902099333e-01  9.3842091291983964e-01  9.3880392203122753e-01  9.3931791512992480e-01  9.3999074838226582e-01  9.4085260740029075e-01  9.4193381522072561e-01  9.4326163995517254e-01  9.4485571608797636e-01  9.4672156930880835e-01  9.4884158870393376e-01  9.5116264131720396e-01  9.5357943660708677e-01  9.5591289302905558e-01  9.5788354357106387e-01  9.5908234602103992e-01  9.5894702477817073e-01  9.5676495203545453e-01  9.5175015848156252e-01  9.4329250007125098e-01  9.3156330030173284e-01  9.1879288566841366e-01  9.1166524134498361e-01  8.9923985290381148e-01  9.0757611838460495e-01  9.2320029068219356e-01  9.3848776208792095e-01  9.5056659728623716e-01  9.5891173812813113e-01  9.6398942332692927e-01  9.6656479416672114e-01  9.6738797565004908e-01  9.6707865963737738e-01  9.6610430662680502e-01  9.6479636111116562e-01  9.6337771133112582e-01  9.6198991375257048e-01  9.6071613353738561e-01  9.5959904245684813e-01  9.5865418787564860e-01  9.5787970856783755e-01  9.5726326440984311e-01  9.5678691272577643e-01  9.5643050692702170e-01  9.5617405071420714e-01  9.5599932361643281e-01  9.5589100081430234e-01  9.5583741870057060e-01  9.5583108365135416e-01  9.5586898134804232e-01  9.5595271415455230e-01  9.5608847089392035e-01  9.5628681307469909e-01  9.5656224019004299e-01  9.5693247001361881e-01  9.5741733363491810e-01  9.5803713504147248e-01  9.5881025701626699e-01  9.5974970465046261e-01  9.6085816132460411e-01  9.6212098943512003e-01  9.6349644982925942e-01  9.6490227783098914e-01  9.6619774287919946e-01  9.6716067861098898e-01  9.6746023990113539e-01  9.6662943077178809e-01  9.6404887496863667e-01  9.5896858767610615e-01  9.5062334188683062e-01  9.3854650639076864e-01  9.2326233908937883e-01  9.0764148390798760e-01  8.9930672895398733e-01  8.8745630659841224e-01  8.9675355787594735e-01  9.1467255836931161e-01  9.3286126451340767e-01  9.4793387076970881e-01  9.5906594823720159e-01  9.6658962057626430e-01  9.7123951307165024e-01  9.7378860155459479e-01  9.7490047737144381e-01  9.7509019180598655e-01  9.7473278483172698e-01  9.7408832412283963e-01  9.7332914315929819e-01  9.7256367876842154e-01  9.7185541350285243e-01  9.7123714879004741e-01  9.7072141457812211e-01  9.7030790238205777e-01  9.6998870059738096e-01  9.6975195217758969e-01  9.6958440126785683e-01  9.6947316586431165e-01  9.6940697121946096e-01  9.6937700100431923e-01  9.6937746590052698e-01  9.6940594775103406e-01  9.6946354716019589e-01  9.6955483919099039e-01  9.6968762138256936e-01  9.6987241654281553e-01  9.7012166532481925e-01  9.7044850579966802e-01  9.7086498402147259e-01  9.7137946564281741e-01  9.7199291904053020e-01  9.7269361219155837e-01  9.7344961182223255e-01  9.7419831310865979e-01  9.7483211785826429e-01  9.7517945754128965e-01  9.7498093439669664e-01  9.7386207125047897e-01  9.7130826228841805e-01  9.6665622474414725e-01  9.5913311105814369e-01  9.4800416206475147e-01  9.3293673247356634e-01  9.1475419301132965e-01  8.9684064236911787e-01  8.8754573302583795e-01  8.7655198712185711e-01  8.8661746430738342e-01  9.0638622750483011e-01  9.2693422051334651e-01  9.4446123727588771e-01  9.5789326711593437e-01  9.6744452779752454e-01  9.7381765341113236e-01  9.7780014316266883e-01  9.8008997913476226e-01  9.8124136797816131e-01  9.8166609334538102e-01  9.8165595341773926e-01  9.8140966427470111e-01  9.8105728619485311e-01  9.8067999663984251e-01  9.8032514104083512e-01  9.8001727210890877e-01  9.7976605937905970e-01  9.7957187440443350e-01  9.7942970275156993e-01  9.7933187454296300e-01  9.7926996796449872e-01  9.7923613183409075e-01  9.7922399245465053e-01  9.7922925163997077e-01  9.7925004100032320e-01  9.7928706639943508e-01  9.7934355088996494e-01  9.7942496045202987e-01  9.7953847127488780e-01  9.7969210676451179e-01  9.7989343253668992e-01  9.8014764261699261e-01  9.8045479331302754e-01  9.8080583674335342e-01  9.8117697117628211e-01  9.8152166650491779e-01  9.8175956762640570e-01  9.8176139953438435e-01  9.8132916549062355e-01  9.8017170546071053e-01  9.7787778530550962e-01  9.7389364936488043e-01  9.6752164045039502e-01  9.5797439347246427e-01  9.4454909717440472e-01  9.2703086460393125e-01  9.0649233767573512e-01  8.8673150823086244e-01  8.7666934560112209e-01  8.6669723821930611e-01  8.7737912190313494e-01  8.9864240788418059e-01  9.2110876187667634e-01  9.4064163822312286e-01  9.5595987921206915e-01  9.6717679170075821e-01  9.7496522152202780e-01  9.8012253273630134e-01  9.8337427098921693e-01  9.8530705245147843e-01  9.8636354818059380e-01  9.8686243327016931e-01  9.8702480988793051e-01  9.8699902990697819e-01  9.8688114160529838e-01  9.8673061567961806e-01  9.8658195910753055e-01  9.8645307817843741e-01  9.8635120695537526e-01  9.8627706971023532e-01  9.8622778348289597e-01  9.8619886550550340e-01  9.8618560082009843e-01  9.8618394725628145e-01  9.8619110132869880e-01  9.8620581020137343e-01  9.8622848250604267e-01  9.8626111814965089e-01  9.8630704195110930e-01  9.8637038858358139e-01  9.8645524745493052e-01  9.8656433342717409e-01  9.8669699601964589e-01  9.8684630641654336e-01  9.8699485915357088e-01  9.8710879010287489e-01  9.8712935327602147e-01  9.8696125112767019e-01  9.8645686511464847e-01  9.8539578155523477e-01  9.8345995589978275e-01  9.8020728367335019e-01  9.7505163894473523e-01  9.6726785107136481e-01  9.5605872465237129e-01  9.4075120854831107e-01  9.2123116863739096e-01  8.9877803406546408e-01  8.7752553426054247e-01  8.6684808732405338e-01  8.5797703393998925e-01  8.6915413668477992e-01  8.9162576686054862e-01  9.1565124655919317e-01  9.3682011507089968e-01  9.5367951580389132e-01  9.6625741344963145e-01  9.7520025645575392e-01  9.8131249738558213e-01  9.8534209932309247e-01  9.8790257608073317e-01  9.8946246386697079e-01  9.9036302202131998e-01  9.9084414469587678e-01  9.9106946579224364e-01  9.9114736932568104e-01  9.9114731564347225e-01  9.9111199343820522e-01  9.9106612974868669e-01  9.9102277085687485e-01  9.9098770331783115e-01  9.9096251868194440e-01  9.9094668294767185e-01  9.9093886883458260e-01  9.9093774549441527e-01  9.9094238493461795e-01  9.9095241926587641e-01  9.9096805022117185e-01  9.9098996249206839e-01  9.9101912766667721e-01  9.9105641762318808e-01  9.9110188737437932e-01  9.9115354115597276e-01  9.9120535320050995e-01  9.9124425866704180e-01  9.9124574300828272e-01  9.9116753140974412e-01  9.9094072448000570e-01  9.9045758549257212e-01  9.8955516191210868e-01  9.8799423941574172e-01  9.8543421804696385e-01  9.8140718999076126e-01  9.7530021955740143e-01  9.6636581722845649e-01  9.5379977645694802e-01  9.3695544388080332e-01  9.1580387117087247e-01  8.9179578736168019e-01  8.6933814638547291e-01  8.5816674726265851e-01  8.5041368172169562e-01  8.6198791213928005e-01  8.8543450453477957e-01  9.1072401777933032e-01  9.3322311338840680e-01  9.5133696915450938e-01  9.6502183289148191e-01  9.7490121590202006e-01  9.8178473882310169e-01  9.8643860923987414e-01  9.8949854518091984e-01  9.9145453419169483e-01  9.9266655881683230e-01  9.9339001909475222e-01  9.9380105238173211e-01  9.9401803330030503e-01  9.9411845565058088e-01  9.9415161797114304e-01  9.9414791109457024e-01  9.9412550172737257e-01  9.9409505726709990e-01  9.9406298172542573e-01  9.9403348954633652e-01  9.9400975971289451e-01  9.9399438855997124e-01  9.9398937433204482e-01  9.9399588027675156e-01  9.9401399522113998e-01  9.9404262107504737e-01  9.9407947970206634e-01  9.9412108859301351e-01  9.9416244940741494e-01  9.9419614472484030e-01  9.9421053045751862e-01  9.9418670503490825e-01  9.9409389172613061e-01  9.9388276715412394e-01  9.9347611932051327e-01  9.9275607762452500e-01  9.9154714751902007e-01  9.8959464664046248e-01  9.8653934490865036e-01  9.8189201663478720e-01  9.7501768242457520e-01  9.6515077600651766e-01  9.5148206117378231e-01  9.3338786778864524e-01  9.1091082720824901e-01  8.8564321420643599e-01  8.6221409901311052e-01  8.5064696072009627e-01  8.4398401411126245e-01  8.5587502635892221e-01  8.8010407672860957e-01  9.0641289493927668e-01  9.2998776352623358e-01  9.4911710877916777e-01  9.6369724563345371e-01  9.7433187531398924e-01  9.8183421851829988e-01  9.8698510918531424e-01  9.9043829913688342e-01  9.9270121967411429e-01  9.9414899319256655e-01  9.9504940484474957e-01  9.9558839370245455e-01  9.9589199568455333e-01  9.9604377223580520e-01  9.9609807569057485e-01  9.9608991574390149e-01  9.9604218361506591e-01  9.9597081506615692e-01  9.9588826824164411e-01  9.9580554054960269e-01  9.9573290050754204e-01  9.9567957644455773e-01  9.9565278199281149e-01  9.9565657690134723e-01  9.9569105829562898e-01  9.9575219993998731e-01  9.9583234669732323e-01  9.9592104758900724e-01  9.9600569970300923e-01  9.9607143308740087e-01  9.9609975448765942e-01  9.9606558649004318e-01  9.9593239265785771e-01  9.9564502266665311e-01  9.9511976245130962e-01  9.9423091292092902e-01  9.9279319821616163e-01  9.9053969120637975e-01  9.8709623378779854e-01  9.8195640862892963e-01  9.7446747335056583e-01  9.6384950151495896e-01  9.4928987983654489e-01  9.3018486152087210e-01  9.0663691620594022e-01  8.8035465732334439e-01  8.5614673316051704e-01  8.4426427752755306e-01  8.3863281059500316e-01  8.5077422711634010e-01  8.7562559109310911e-01  9.0274915048073590e-01  9.2718662286377518e-01  9.4713127084730797e-01  9.6242967137217117e-01  9.7366842159157618e-01  9.8166291445217102e-01  9.8720532655968485e-01  9.9096360694546159e-01  9.9345886687185969e-01  9.9507790539671070e-01  9.9609776089821200e-01  9.9671133534874257e-01  9.9704975204041857e-01  9.9720036275123336e-01  9.9722071560992442e-01  9.9714922561569541e-01  9.9701324823574344e-01  9.9683500959165650e-01  9.9663555958671590e-01  9.9643671844482817e-01  9.9626099216996822e-01  9.9612968647714395e-01  9.9605987807291485e-01  9.9606129396531162e-01  9.9613423652229149e-01  9.9626932286087166e-01  9.9644908267494126e-01  9.9665070112367771e-01  9.9684874494117326e-01  9.9701671472380393e-01  9.9712660832500477e-01  9.9714609915370400e-01  9.9703319945384439e-01  9.9672829938624041e-01  9.9614329505645727e-01  9.9514728317500301e-01  9.9354821365709289e-01  9.9107026135674181e-01  9.8732802043169265e-01  9.8180184221422728e-01  9.7382522566028595e-01  9.6260730707597786e-01  9.4733363845239860e-01  9.2741778371157524e-01  9.0301192807620845e-01  8.7591948114742568e-01  8.5109286294047992e-01  8.3896147170570523e-01  8.3428349616194342e-01  8.4662020514959069e-01  8.7195999467214669e-01  8.9972646957734637e-01  9.2484713124340723e-01  9.4543865590314691e-01  9.6130672336386758e-01  9.7302313528972517e-01  9.8140409458810007e-01  9.8725006118810854e-01  9.9123955697050647e-01  9.9390371830461743e-01  9.9563751378455545e-01  9.9672387625991654e-01  9.9735940418653102e-01  9.9767710663454090e-01  9.9776505858657227e-01  9.9768129788641136e-01  9.9746572555788282e-01  9.9714965084005891e-01  9.9676321702347781e-01  9.9634045267912363e-01  9.9592134042742053e-01  9.9555033952486505e-01  9.9527141672093666e-01  9.9512073686518032e-01  9.9511925803991974e-01  9.9526786253176724e-01  9.9554687797477903e-01  9.9592012417281894e-01  9.9634181721665993e-01  9.9676368729753773e-01  9.9713986474744254e-01  9.9742809577965297e-01  9.9758696963148896e-01  9.9756953330512621e-01  9.9731378344429000e-01  9.9673021585198218e-01  9.9568617564459272e-01  9.9398650148027701e-01  9.9135025169272217e-01  9.8738466409104020e-01  9.8156083318930865e-01  9.7320237602853954e-01  9.6151074578256068e-01  9.4567117394895872e-01  9.2511235074562237e-01  9.0002744371897125e-01  8.7229617533027237e-01  8.4698445998852090e-01  8.3465914874641822e-01  8.3084671726966997e-01  8.4333288012430352e-01  8.6904897704443151e-01  8.9731379430886593e-01  9.2296634271005917e-01  9.4406270183736740e-01  9.6037532063762376e-01  9.7246316348985673e-01  9.8114192447297788e-01  9.8721745211535583e-01  9.9137534072040734e-01  9.9415308162941463e-01  9.9595008146440034e-01  9.9705131438936601e-01  9.9765298797877655e-01  9.9788560831599005e-01  9.9783336343078544e-01  9.9755029256461292e-01  9.9707413790422872e-01  9.9643852145774525e-01  9.9568337402823648e-01  9.9486258235042369e-01  9.9404700239524946e-01  9.9332091396397026e-01  9.9277124197414413e-01  9.9247145464819631e-01  9.9246492826724209e-01  9.9275389597189478e-01  9.9329847773942337e-01  9.9402615401390382e-01  9.9484768659016087e-01  9.9567335939045265e-01  9.9642429212006034e-01  9.9703631228500511e-01  9.9745659164694433e-01  9.9763474526668106e-01  9.9751020270933033e-01  9.9699692140314322e-01  9.9596558620181874e-01  9.9422284600137856e-01  9.9148727987684560e-01  9.8736315454261481e-01  9.8131648329423615e-01  9.7266487373343347e-01  9.6060525837992583e-01  9.4432406393066259e-01  9.2326330731952200e-01  8.9764961978021118e-01  8.6942319899305032e-01  8.4373787964695546e-01  8.3126426079488103e-01  8.2822714131716380e-01  8.4082466131881939e-01  8.6682327721936081e-01  8.9546491187401422e-01  9.2152181730917482e-01  9.4300318602885935e-01  9.5965485866776812e-01  9.7202460990748285e-01  9.8092634047816818e-01  9.8716851525257088e-01  9.9144034873000264e-01  9.9428187783483513e-01  9.9609278954848057e-01  9.9715542511233490e