<?xml version="1.0"?>
<VTKFile type="UnstructuredGrid"  version="0.1"  >
<UnstructuredGrid>
<Piece  NumberOfPoints="5101" NumberOfCells="10000">
<Points>
<DataArray  type="Float64"  NumberOfComponents="3"  format="ascii">0 0 0  0.2 0 0  0.4 0 0  0.6 0 0  0.8 0 0  1 0 0  1.2 0 0  1.4 0 0  1.6 0 0  1.8 0 0  2 0 0  2.2 0 0  2.4 0 0  2.6 0 0  2.8 0 0  3 0 0  3.2 0 0  3.4 0 0  3.6 0 0  3.8 0 0  4 0 0  4.2 0 0  4.4 0 0  4.6 0 0  4.8 0 0  5 0 0  5.2 0 0  5.4 0 0  5.6 0 0  5.8 0 0  6 0 0  6.2 0 0  6.4 0 0  6.6 0 0  6.8 0 0  7 0 0  7.2 0 0  7.4 0 0  7.6 0 0  7.8 0 0  8 0 0  8.199999999999999 0 0  8.4 0 0  8.6 0 0  8.800000000000001 0 0  9 0 0  9.199999999999999 0 0  9.4 0 0  9.6 0 0  9.800000000000001 0 0  10 0 0  0 0.2 0  0.2 0.2 0  0.4 0.2 0  0.6 0.2 0  0.8 0.2 0  1 0.2 0  1.2 0.2 0  1.4 0.2 0  1.6 0.2 0  1.8 0.2 0  2 0.2 0  2.2 0.2 0  2.4 0.2 0  2.6 0.2 0  2.8 0.2 0  3 0.2 0  3.2 0.2 0  3.4 0.2 0  3.6 0.2 0  3.8 0.2 0  4 0.2 0  4.2 0.2 0  4.4 0.2 0  4.6 0.2 0  4.8 0.2 0  5 0.2 0  5.2 0.2 0  5.4 0.2 0  5.6 0.2 0  5.8 0.2 0  6 0.2 0  6.2 0.2 0  6.4 0.2 0  6.6 0.2 0  6.8 0.2 0  7 0.2 0  7.2 0.2 0  7.4 0.2 0  7.6 0.2 0  7.8 0.2 0  8 0.2 0  8.199999999999999 0.2 0  8.4 0.2 0  8.6 0.2 0  8.800000000000001 0.2 0  9 0.2 0  9.199999999999999 0.2 0  9.4 0.2 0  9.6 0.2 0  9.800000000000001 0.2 0  10 0.2 0  0 0.4 0  0.2 0.4 0  0.4 0.4 0  0.6 0.4 0  0.8 0.4 0  1 0.4 0  1.2 0.4 0  1.4 0.4 0  1.6 0.4 0  1.8 0.4 0  2 0.4 0  2.2 0.4 0  2.4 0.4 0  2.6 0.4 0  2.8 0.4 0  3 0.4 0  3.2 0.4 0  3.4 0.4 0  3.6 0.4 0  3.8 0.4 0  4 0.4 0  4.2 0.4 0  4.4 0.4 0  4.6 0.4 0  4.8 0.4 0  5 0.4 0  5.2 0.4 0  5.4 0.4 0  5.6 0.4 0  5.8 0.4 0  6 0.4 0  6.2 0.4 0  6.4 0.4 0  6.6 0.4 0  6.8 0.4 0  7 0.4 0  7.2 0.4 0  7.4 0.4 0  7.6 0.4 0  7.8 0.4 0  8 0.4 0  8.199999999999999 0.4 0  8.4 0.4 0  8.6 0.4 0  8.800000000000001 0.4 0  9 0.4 0  9.199999999999999 0.4 0  9.4 0.4 0  9.6 0.4 0  9.800000000000001 0.4 0  10 0.4 0  0 0.6 0  0.2 0.6 0  0.4 0.6 0  0.6 0.6 0  0.8 0.6 0  1 0.6 0  1.2 0.6 0  1.4 0.6 0  1.6 0.6 0  1.8 0.6 0  2 0.6 0  2.2 0.6 0  2.4 0.6 0  2.6 0.6 0  2.8 0.6 0  3 0.6 0  3.2 0.6 0  3.4 0.6 0  3.6 0.6 0  3.8 0.6 0  4 0.6 0  4.2 0.6 0  4.4 0.6 0  4.6 0.6 0  4.8 0.6 0  5 0.6 0  5.2 0.6 0  5.4 0.6 0  5.6 0.6 0  5.8 0.6 0  6 0.6 0  6.2 0.6 0  6.4 0.6 0  6.6 0.6 0  6.8 0.6 0  7 0.6 0  7.2 0.6 0  7.4 0.6 0  7.6 0.6 0  7.8 0.6 0  8 0.6 0  8.199999999999999 0.6 0  8.4 0.6 0  8.6 0.6 0  8.800000000000001 0.6 0  9 0.6 0  9.199999999999999 0.6 0  9.4 0.6 0  9.6 0.6 0  9.800000000000001 0.6 0  10 0.6 0  0 0.8 0  0.2 0.8 0  0.4 0.8 0  0.6 0.8 0  0.8 0.8 0  1 0.8 0  1.2 0.8 0  1.4 0.8 0  1.6 0.8 0  1.8 0.8 0  2 0.8 0  2.2 0.8 0  2.4 0.8 0  2.6 0.8 0  2.8 0.8 0  3 0.8 0  3.2 0.8 0  3.4 0.8 0  3.6 0.8 0  3.8 0.8 0  4 0.8 0  4.2 0.8 0  4.4 0.8 0  4.6 0.8 0  4.8 0.8 0  5 0.8 0  5.2 0.8 0  5.4 0.8 0  5.6 0.8 0  5.8 0.8 0  6 0.8 0  6.2 0.8 0  6.4 0.8 0  6.6 0.8 0  6.8 0.8 0  7 0.8 0  7.2 0.8 0  7.4 0.8 0  7.6 0.8 0  7.8 0.8 0  8 0.8 0  8.199999999999999 0.8 0  8.4 0.8 0  8.6 0.8 0  8.800000000000001 0.8 0  9 0.8 0  9.199999999999999 0.8 0  9.4 0.8 0  9.6 0.8 0  9.800000000000001 0.8 0  10 0.8 0  0 1 0  0.2 1 0  0.4 1 0  0.6 1 0  0.8 1 0  1 1 0  1.2 1 0  1.4 1 0  1.6 1 0  1.8 1 0  2 1 0  2.2 1 0  2.4 1 0  2.6 1 0  2.8 1 0  3 1 0  3.2 1 0  3.4 1 0  3.6 1 0  3.8 1 0  4 1 0  4.2 1 0  4.4 1 0  4.6 1 0  4.8 1 0  5 1 0  5.2 1 0  5.4 1 0  5.6 1 0  5.8 1 0  6 1 0  6.2 1 0  6.4 1 0  6.6 1 0  6.8 1 0  7 1 0  7.2 1 0  7.4 1 0  7.6 1 0  7.8 1 0  8 1 0  8.199999999999999 1 0  8.4 1 0  8.6 1 0  8.800000000000001 1 0  9 1 0  9.199999999999999 1 0  9.4 1 0  9.6 1 0  9.800000000000001 1 0  10 1 0  0 1.2 0  0.2 1.2 0  0.4 1.2 0  0.6 1.2 0  0.8 1.2 0  1 1.2 0  1.2 1.2 0  1.4 1.2 0  1.6 1.2 0  1.8 1.2 0  2 1.2 0  2.2 1.2 0  2.4 1.2 0  2.6 1.2 0  2.8 1.2 0  3 1.2 0  3.2 1.2 0  3.4 1.2 0  3.6 1.2 0  3.8 1.2 0  4 1.2 0  4.2 1.2 0  4.4 1.2 0  4.6 1.2 0  4.8 1.2 0  5 1.2 0  5.2 1.2 0  5.4 1.2 0  5.6 1.2 0  5.8 1.2 0  6 1.2 0  6.2 1.2 0  6.4 1.2 0  6.6 1.2 0  6.8 1.2 0  7 1.2 0  7.2 1.2 0  7.4 1.2 0  7.6 1.2 0  7.8 1.2 0  8 1.2 0  8.199999999999999 1.2 0  8.4 1.2 0  8.6 1.2 0  8.800000000000001 1.2 0  9 1.2 0  9.199999999999999 1.2 0  9.4 1.2 0  9.6 1.2 0  9.800000000000001 1.2 0  10 1.2 0  0 1.4 0  0.2 1.4 0  0.4 1.4 0  0.6 1.4 0  0.8 1.4 0  1 1.4 0  1.2 1.4 0  1.4 1.4 0  1.6 1.4 0  1.8 1.4 0  2 1.4 0  2.2 1.4 0  2.4 1.4 0  2.6 1.4 0  2.8 1.4 0  3 1.4 0  3.2 1.4 0  3.4 1.4 0  3.6 1.4 0  3.8 1.4 0  4 1.4 0  4.2 1.4 0  4.4 1.4 0  4.6 1.4 0  4.8 1.4 0  5 1.4 0  5.2 1.4 0  5.4 1.4 0  5.6 1.4 0  5.8 1.4 0  6 1.4 0  6.2 1.4 0  6.4 1.4 0  6.6 1.4 0  6.8 1.4 0  7 1.4 0  7.2 1.4 0  7.4 1.4 0  7.6 1.4 0  7.8 1.4 0  8 1.4 0  8.199999999999999 1.4 0  8.4 1.4 0  8.6 1.4 0  8.800000000000001 1.4 0  9 1.4 0  9.199999999999999 1.4 0  9.4 1.4 0  9.6 1.4 0  9.800000000000001 1.4 0  10 1.4 0  0 1.6 0  0.2 1.6 0  0.4 1.6 0  0.6 1.6 0  0.8 1.6 0  1 1.6 0  1.2 1.6 0  1.4 1.6 0  1.6 1.6 0  1.8 1.6 0  2 1.6 0  2.2 1.6 0  2.4 1.6 0  2.6 1.6 0  2.8 1.6 0  3 1.6 0  3.2 1.6 0  3.4 1.6 0  3.6 1.6 0  3.8 1.6 0  4 1.6 0  4.2 1.6 0  4.4 1.6 0  4.6 1.6 0  4.8 1.6 0  5 1.6 0  5.2 1.6 0  5.4 1.6 0  5.6 1.6 0  5.8 1.6 0  6 1.6 0  6.2 1.6 0  6.4 1.6 0  6.6 1.6 0  6.8 1.6 0  7 1.6 0  7.2 1.6 0  7.4 1.6 0  7.6 1.6 0  7.8 1.6 0  8 1.6 0  8.199999999999999 1.6 0  8.4 1.6 0  8.6 1.6 0  8.800000000000001 1.6 0  9 1.6 0  9.199999999999999 1.6 0  9.4 1.6 0  9.6 1.6 0  9.800000000000001 1.6 0  10 1.6 0  0 1.8 0  0.2 1.8 0  0.4 1.8 0  0.6 1.8 0  0.8 1.8 0  1 1.8 0  1.2 1.8 0  1.4 1.8 0  1.6 1.8 0  1.8 1.8 0  2 1.8 0  2.2 1.8 0  2.4 1.8 0  2.6 1.8 0  2.8 1.8 0  3 1.8 0  3.2 1.8 0  3.4 1.8 0  3.6 1.8 0  3.8 1.8 0  4 1.8 0  4.2 1.8 0  4.4 1.8 0  4.6 1.8 0  4.8 1.8 0  5 1.8 0  5.2 1.8 0  5.4 1.8 0  5.6 1.8 0  5.8 1.8 0  6 1.8 0  6.2 1.8 0  6.4 1.8 0  6.6 1.8 0  6.8 1.8 0  7 1.8 0  7.2 1.8 0  7.4 1.8 0  7.6 1.8 0  7.8 1.8 0  8 1.8 0  8.199999999999999 1.8 0  8.4 1.8 0  8.6 1.8 0  8.800000000000001 1.8 0  9 1.8 0  9.199999999999999 1.8 0  9.4 1.8 0  9.6 1.8 0  9.800000000000001 1.8 0  10 1.8 0  0 2 0  0.2 2 0  0.4 2 0  0.6 2 0  0.8 2 0  1 2 0  1.2 2 0  1.4 2 0  1.6 2 0  1.8 2 0  2 2 0  2.2 2 0  2.4 2 0  2.6 2 0  2.8 2 0  3 2 0  3.2 2 0  3.4 2 0  3.6 2 0  3.8 2 0  4 2 0  4.2 2 0  4.4 2 0  4.6 2 0  4.8 2 0  5 2 0  5.2 2 0  5.4 2 0  5.6 2 0  5.8 2 0  6 2 0  6.2 2 0  6.4 2 0  6.6 2 0  6.8 2 0  7 2 0  7.2 2 0  7.4 2 0  7.6 2 0  7.8 2 0  8 2 0  8.199999999999999 2 0  8.4 2 0  8.6 2 0  8.800000000000001 2 0  9 2 0  9.199999999999999 2 0  9.4 2 0  9.6 2 0  9.800000000000001 2 0  10 2 0  0 2.2 0  0.2 2.2 0  0.4 2.2 0  0.6 2.2 0  0.8 2.2 0  1 2.2 0  1.2 2.2 0  1.4 2.2 0  1.6 2.2 0  1.8 2.2 0  2 2.2 0  2.2 2.2 0  2.4 2.2 0  2.6 2.2 0  2.8 2.2 0  3 2.2 0  3.2 2.2 0  3.4 2.2 0  3.6 2.2 0  3.8 2.2 0  4 2.2 0  4.2 2.2 0  4.4 2.2 0  4.6 2.2 0  4.8 2.2 0  5 2.2 0  5.2 2.2 0  5.4 2.2 0  5.6 2.2 0  5.8 2.2 0  6 2.2 0  6.2 2.2 0  6.4 2.2 0  6.6 2.2 0  6.8 2.2 0  7 2.2 0  7.2 2.2 0  7.4 2.2 0  7.6 2.2 0  7.8 2.2 0  8 2.2 0  8.199999999999999 2.2 0  8.4 2.2 0  8.6 2.2 0  8.800000000000001 2.2 0  9 2.2 0  9.199999999999999 2.2 0  9.4 2.2 0  9.6 2.2 0  9.800000000000001 2.2 0  10 2.2 0  0 2.4 0  0.2 2.4 0  0.4 2.4 0  0.6 2.4 0  0.8 2.4 0  1 2.4 0  1.2 2.4 0  1.4 2.4 0  1.6 2.4 0  1.8 2.4 0  2 2.4 0  2.2 2.4 0  2.4 2.4 0  2.6 2.4 0  2.8 2.4 0  3 2.4 0  3.2 2.4 0  3.4 2.4 0  3.6 2.4 0  3.8 2.4 0  4 2.4 0  4.2 2.4 0  4.4 2.4 0  4.6 2.4 0  4.8 2.4 0  5 2.4 0  5.2 2.4 0  5.4 2.4 0  5.6 2.4 0  5.8 2.4 0  6 2.4 0  6.2 2.4 0  6.4 2.4 0  6.6 2.4 0  6.8 2.4 0  7 2.4 0  7.2 2.4 0  7.4 2.4 0  7.6 2.4 0  7.8 2.4 0  8 2.4 0  8.199999999999999 2.4 0  8.4 2.4 0  8.6 2.4 0  8.800000000000001 2.4 0  9 2.4 0  9.199999999999999 2.4 0  9.4 2.4 0  9.6 2.4 0  9.800000000000001 2.4 0  10 2.4 0  0 2.6 0  0.2 2.6 0  0.4 2.6 0  0.6 2.6 0  0.8 2.6 0  1 2.6 0  1.2 2.6 0  1.4 2.6 0  1.6 2.6 0  1.8 2.6 0  2 2.6 0  2.2 2.6 0  2.4 2.6 0  2.6 2.6 0  2.8 2.6 0  3 2.6 0  3.2 2.6 0  3.4 2.6 0  3.6 2.6 0  3.8 2.6 0  4 2.6 0  4.2 2.6 0  4.4 2.6 0  4.6 2.6 0  4.8 2.6 0  5 2.6 0  5.2 2.6 0  5.4 2.6 0  5.6 2.6 0  5.8 2.6 0  6 2.6 0  6.2 2.6 0  6.4 2.6 0  6.6 2.6 0  6.8 2.6 0  7 2.6 0  7.2 2.6 0  7.4 2.6 0  7.6 2.6 0  7.8 2.6 0  8 2.6 0  8.199999999999999 2.6 0  8.4 2.6 0  8.6 2.6 0  8.800000000000001 2.6 0  9 2.6 0  9.199999999999999 2.6 0  9.4 2.6 0  9.6 2.6 0  9.800000000000001 2.6 0  10 2.6 0  0 2.8 0  0.2 2.8 0  0.4 2.8 0  0.6 2.8 0  0.8 2.8 0  1 2.8 0  1.2 2.8 0  1.4 2.8 0  1.6 2.8 0  1.8 2.8 0  2 2.8 0  2.2 2.8 0  2.4 2.8 0  2.6 2.8 0  2.8 2.8 0  3 2.8 0  3.2 2.8 0  3.4 2.8 0  3.6 2.8 0  3.8 2.8 0  4 2.8 0  4.2 2.8 0  4.4 2.8 0  4.6 2.8 0  4.8 2.8 0  5 2.8 0  5.2 2.8 0  5.4 2.8 0  5.6 2.8 0  5.8 2.8 0  6 2.8 0  6.2 2.8 0  6.4 2.8 0  6.6 2.8 0  6.8 2.8 0  7 2.8 0  7.2 2.8 0  7.4 2.8 0  7.6 2.8 0  7.8 2.8 0  8 2.8 0  8.199999999999999 2.8 0  8.4 2.8 0  8.6 2.8 0  8.800000000000001 2.8 0  9 2.8 0  9.199999999999999 2.8 0  9.4 2.8 0  9.6 2.8 0  9.800000000000001 2.8 0  10 2.8 0  0 3 0  0.2 3 0  0.4 3 0  0.6 3 0  0.8 3 0  1 3 0  1.2 3 0  1.4 3 0  1.6 3 0  1.8 3 0  2 3 0  2.2 3 0  2.4 3 0  2.6 3 0  2.8 3 0  3 3 0  3.2 3 0  3.4 3 0  3.6 3 0  3.8 3 0  4 3 0  4.2 3 0  4.4 3 0  4.6 3 0  4.8 3 0  5 3 0  5.2 3 0  5.4 3 0  5.6 3 0  5.8 3 0  6 3 0  6.2 3 0  6.4 3 0  6.6 3 0  6.8 3 0  7 3 0  7.2 3 0  7.4 3 0  7.6 3 0  7.8 3 0  8 3 0  8.199999999999999 3 0  8.4 3 0  8.6 3 0  8.800000000000001 3 0  9 3 0  9.199999999999999 3 0  9.4 3 0  9.6 3 0  9.800000000000001 3 0  10 3 0  0 3.2 0  0.2 3.2 0  0.4 3.2 0  0.6 3.2 0  0.8 3.2 0  1 3.2 0  1.2 3.2 0  1.4 3.2 0  1.6 3.2 0  1.8 3.2 0  2 3.2 0  2.2 3.2 0  2.4 3.2 0  2.6 3.2 0  2.8 3.2 0  3 3.2 0  3.2 3.2 0  3.4 3.2 0  3.6 3.2 0  3.8 3.2 0  4 3.2 0  4.2 3.2 0  4.4 3.2 0  4.6 3.2 0  4.8 3.2 0  5 3.2 0  5.2 3.2 0  5.4 3.2 0  5.6 3.2 0  5.8 3.2 0  6 3.2 0  6.2 3.2 0  6.4 3.2 0  6.6 3.2 0  6.8 3.2 0  7 3.2 0  7.2 3.2 0  7.4 3.2 0  7.6 3.2 0  7.8 3.2 0  8 3.2 0  8.199999999999999 3.2 0  8.4 3.2 0  8.6 3.2 0  8.800000000000001 3.2 0  9 3.2 0  9.199999999999999 3.2 0  9.4 3.2 0  9.6 3.2 0  9.800000000000001 3.2 0  10 3.2 0  0 3.4 0  0.2 3.4 0  0.4 3.4 0  0.6 3.4 0  0.8 3.4 0  1 
[...]
<PointData  Scalars="f_14"> 
<DataArray  type="Float64"  Name="f_14"  format="ascii">9.8737971633120170e-01  9.8645448230269472e-01  9.8414880694203710e-01  9.8109498511151205e-01  9.7776330563750724e-01  9.7446247875933900e-01  9.7137612700106180e-01  9.6859969958446468e-01  9.6617016102235154e-01  9.6408783271418386e-01  9.6233172321481486e-01  9.6086986341989311e-01  9.5966599694873711e-01  9.5868370024371208e-01  9.5788874605264673e-01  9.5725030613322692e-01  9.5674141754194453e-01  9.5633900683197559e-01  9.5602367063281024e-01  9.5577934219634997e-01  9.5559292519896710e-01  9.5545394311532195e-01  9.5535423065497482e-01  9.5528767988975682e-01  9.5525004543164271e-01  9.5523880862357913e-01  9.5525309892866039e-01  9.5529367062055404e-01  9.5536293376673198e-01  9.5546503973699737e-01  9.5560602246910209e-01  9.5579399684106114e-01  9.5603941397574166e-01  9.5635536916773134e-01  9.5675795008319786e-01  9.5726659918560630e-01  9.5790444260172647e-01  9.5869850467616802e-01  9.5967967910992935e-01  9.6088225858887899e-01  9.6234272883504368e-01  9.6409740285527001e-01  9.6617829958323442e-01  9.6860645320866123e-01  9.7138157859087693e-01  9.7446674237774455e-01  9.7776652349796933e-01  9.8109732728033749e-01  9.8415047404730316e-01  9.8645571096229601e-01  9.8738078638368421e-01  9.8645483414973245e-01  9.8608560052367722e-01  9.8460089100754122e-01  9.8226699757620883e-01  9.7950755049983751e-01  9.7664787572757294e-01  9.7389829277965523e-01  9.7137856101944153e-01  9.6914505690563502e-01  9.6721292613702026e-01  9.6557230724852916e-01  9.6419955108046962e-01  9.6306462998796349e-01  9.6213580313614921e-01  9.6138238208471216e-01  9.6077622704952759e-01  9.6029242721044261e-01  9.5990948139275178e-01  9.5960919358293373e-01  9.5937642427230474e-01  9.5919878701205918e-01  9.5906634423668347e-01  9.5897133292367587e-01  9.5890793560787824e-01  9.5887210314075877e-01  9.5886143054933026e-01  9.5887508508154307e-01  9.5891378504593916e-01  9.5897982859834430e-01  9.5907717254339953e-01  9.5921156187624412e-01  9.5939071051393987e-01  9.5962453165467110e-01  9.5992541143103849e-01  9.6030851062535394e-01  9.6079206432916808e-01  9.6139762602365175e-01  9.6215016723496749e-01  9.6307789224755225e-01  9.6421155378722589e-01  9.6558295359617963e-01  9.6722217466016813e-01  9.6915291472775755e-01  9.7138507687117637e-01  9.7390355065241796e-01  9.7665198991545454e-01  9.7951066264952380e-01  9.8226927621023008e-01  9.8460253369017336e-01  9.8608683714680734e-01  9.8645592751361466e-01  9.8415019952404925e-01  9.8460191378217421e-01  9.8465420637907441e-01  9.8382934106069753e-01  9.8233454618967453e-01  9.8047614227007729e-01  9.7850162567755727e-01  9.7657685367298941e-01  9.7479920336905168e-01  9.7321674322481921e-01  9.7184499517261158e-01  9.7067955867910993e-01  9.6970492444923939e-01  9.6890030392836279e-01  9.6824329392858755e-01  9.6771204630164387e-01  9.6728644637400485e-01  9.6694866075848163e-01  9.6668330363774668e-01  9.6647738826931273e-01  9.6632017180993834e-01  9.6620296096919667e-01  9.6611891867230015e-01  9.6606289407208101e-01  9.6603128707926378e-01  9.6602195202336172e-01  9.6603414162378864e-01  9.6606849103909320e-01  9.6612704150780637e-01  9.6621330325638122e-01  9.6633235721646915e-01  9.6649099390024207e-01  9.6669788462261541e-01  9.6696377398045863e-01  9.6730167156551361e-01  9.6772700321203220e-01  9.6825765482751081e-01  9.6891380125995585e-01  9.6971735393028879e-01  9.7069077849772800e-01  9.7185492217672920e-01  9.7322534709845165e-01  9.7480649979991407e-01  9.7658289744510507e-01  9.7850650450130183e-01  9.8047997200302439e-01  9.8233746788674514e-01  9.8383151984696837e-01  9.8465583170801463e-01  9.8460319743990943e-01  9.8415136406106041e-01  9.8109816558090268e-01  9.8226975962439989e-01  9.8383101720895116e-01  9.8463667649096431e-01  9.8459467471016859e-01  9.8392993659227368e-01  9.8290005501262379e-01  9.8170988914722657e-01  9.8049926083688210e-01  9.7935346383989563e-01  9.7831810318808832e-01  9.7741221483967744e-01  9.7663824661294019e-01  9.7598907765837384e-01  9.7545269253729505e-01  9.7501514677555456e-01  9.7466235200425855e-01  9.7438107909448979e-01  9.7415946392964281e-01  9.7398721151579815e-01  9.7385562867745168e-01  9.7375756926340717e-01  9.7368734397788392e-01  9.7364062571891741e-01  9.7361436758924924e-01  9.7360674226818678e-01  9.7361710652622313e-01  9.7364599207875691e-01  9.7369512272379821e-01  9.7376745693734779e-01  9.7386725398643770e-01  9.7400015928104489e-01  9.7417330008533876e-01  9.7439537453914049e-01  9.7467670347980173e-01  9.7502919349133776e-01  9.7546612786723319e-01  9.7600165582704657e-01  9.7664978477953246e-01  9.7742259134691323e-01  9.7832725295548995e-01  9.7936137195904105e-01  9.8050595539637964e-01  9.8171543420507534e-01  9.8290454446205244e-01  9.8393348942808723e-01  9.8459743184134962e-01  9.8463879863011694e-01  9.8383268224347187e-01  9.8227115546123545e-01  9.8109946780439028e-01  9.7776918352724129e-01  9.7951291717218836e-01  9.8233866117068303e-01  9.8459698643643023e-01  9.8591654760346015e-01  9.8641220504776872e-01  9.8632378198342319e-01  9.8587780445318174e-01  9.8524757762968163e-01  9.8455158027591805e-01  9.8386399155659932e-01  9.8322695351135092e-01  9.8266102700065971e-01  9.8217307244338803e-01  9.8176178978372530e-01  9.8142142534510657e-01  9.8114414928175531e-01  9.8092151619910706e-01  9.8074531824803413e-01  9.8060805066127321e-01  9.8050314034138464e-01  9.8042503732510311e-01  9.8036923316127600e-01  9.8033224576756828e-01  9.8031159407766033e-01  9.8030577535459162e-01  9.8031425161852626e-01  9.8033744783882770e-01  9.8037676226232096e-01  9.8043458752151158e-01  9.8051433904839036e-01  9.8062048380654010e-01  9.8075855627864672e-01  9.8093513855972581e-01  9.8115776543839672e-01  9.8143469105735881e-01  9.8177441801886534e-01  9.8218483897171305e-01  9.8267177123456417e-01  9.8323657551055554e-01  9.8387244631252635e-01  9.8455887042919032e-01  9.8525374569824908e-01  9.8588292548468281e-01  9.8632795730708045e-01  9.8641555746807330e-01  9.8591921787328196e-01  9.8459913002634525e-01  9.8234044310366764e-01  9.7951450021848152e-01  9.7777069691315577e-01  9.7447222049419202e-01  9.7665695588123513e-01  9.8048366846984525e-01  9.8393535538482313e-01  9.8641511989988051e-01  9.8793036656537625e-01  9.8868881369528838e-01  9.8892371948313562e-01  9.8883080483414842e-01  9.8855448625720443e-01  9.8819300234112251e-01  9.8780882324528885e-01  9.8743889406068464e-01  9.8710295074883503e-01  9.8680967478295878e-01  9.8656099617542559e-01  9.8635497952819995e-01  9.8618769322617084e-01  9.8605438057538397e-01  9.8595016868112828e-01  9.8587048137737576e-01  9.8581126934762286e-01  9.8576913193707583e-01  9.8574137805874651e-01  9.8572605514984490e-01  9.8572196294244119e-01  9.8572866099145262e-01  9.8574647397589088e-01  9.8577649554456537e-01  9.8582058884298263e-01  9.8588137879254845e-01  9.8596222658691957e-01  9.8606716944656925e-01  9.8620079687579865e-01  9.8636801654308215e-01  9.8657363600944181e-01  9.8682164795147864e-01  9.8711405329055946e-01  9.8744898700280592e-01  9.8781782817983910e-01  9.8820089439310344e-01  9.8856128572652047e-01  9.8883656866424463e-01  9.8892853348378518e-01  9.8869278613560541e-01  9.8793362332549384e-01  9.8641780073741103e-01  9.8393760990974644e-01  9.8048564900457780e-01  9.7665880200301591e-01  9.7447401794887223e-01  9.7139124005708088e-01  9.7391252298843622e-01  9.7851383177741269e-01  9.8290963073966786e-01  9.8633041962404222e-01  9.8869228701486012e-01  9.9016806046804462e-01  9.9098881079895818e-01  9.9136366066366310e-01  9.9145577049431821e-01  9.9138220791266163e-01  9.9122210817501111e-01  9.9102625823789392e-01  9.9082549299520728e-01  9.9063721511738279e-01  9.9047012781604371e-01  9.9032752057103268e-01  9.9020947564010409e-01  9.9011431010685569e-01  9.9003949636660260e-01  9.8998223758030879e-01  9.8993982112228929e-01  9.8990983283688805e-01  9.8989028601012841e-01  9.8987969885995164e-01  9.8987714076367672e-01  9.8988225846766298e-01  9.8989528761104273e-01  9.8991705075275516e-01  9.8994893958180397e-01  9.8999287501904931e-01  9.9005123332052825e-01  9.9012671772430538e-01  9.9022214202206471e-01  9.9034007269931512e-01  9.9048224762122916e-01  9.9064864911749495e-01  9.9083605575203215e-01  9.9103583051846711e-01  9.9123063111367060e-01  9.9138967464071148e-01  9.9146221667492895e-01  9.9136915518996749e-01  9.9099344762556341e-01  9.9017195216185250e-01  9.8869556009303461e-01  9.8633321099461835e-01  9.8291208344619008e-01  9.7851608660091072e-01  9.7391469972644651e-01  9.7139338581662904e-01  9.6862210845182051e-01  9.7139978081963552e-01  9.7659538009670588e-01  9.8172500519225570e-01  9.8588926500322938e-01  9.8893147316417374e-01  9.9099279566417742e-01  9.9229818718178042e-01  9.9306414128310450e-01  9.9346679480105682e-01  9.9363732807558336e-01  9.9366794435325301e-01  9.9362061273999425e-01  9.9353532098921271e-01  9.9343676792458846e-01  9.9333937969282149e-01  9.9325089016822465e-01  9.9317481120929796e-01  9.9311209441928583e-01  9.9306222744287143e-01  9.9302394655184456e-01  9.9299569496921636e-01  9.9297591573483279e-01  9.9296323805335507e-01  9.9295659498086386e-01  9.9295529584728393e-01  9.9295906703141912e-01  9.9296806795715375e-01  9.9298288411082103e-01  9.9300449436216420e-01  9.9303420487264560e-01  9.9307353529329268e-01  9.9312403345937250e-01  9.9318698071515088e-01  9.9326292933046956e-01  9.9335098395074595e-01  9.9344769856316895e-01  9.9354540815811609e-01  9.9362975282170563e-01  9.9367609311328864e-01  9.9364449124820342e-01  9.9347301773481822e-01  9.9306949905541653e-01  9.9230277624634355e-01  9.9099672763814317e-01  9.8893487075064546e-01  9.8589225915917311e-01  9.8172773133566638e-01  9.7659796913429042e-01  9.7140233743440652e-01  9.6862464746074473e-01  9.6620227684163340e-01  9.6917557741429783e-01  9.7482612967936344e-01  9.8052170208839184e-01  9.8526532493488672e-01  9.8884397287737480e-01  9.9137243270512909e-01  9.9306859673181314e-01  9.9415275452207763e-01  9.9480987792942277e-01  9.9518149335817707e-01  9.9536978298198742e-01  9.9544549112233127e-01  9.9545592932618421e-01  9.9543171719549917e-01  9.9539197237450761e-01  9.9534809920749800e-01  9.9530645841473153e-01  9.9527020198961624e-01  9.9524051183094575e-01  9.9521742505105948e-01  9.9520037862929533e-01  9.9518856586283788e-01  9.9518116714532590e-01  9.9517749644223052e-01  9.9517709031236112e-01  9.9517975628547806e-01  9.9518558995284923e-01  9.9519496382349837e-01  9.9520848488526215e-01  9.9522691120959039e-01  9.9525101010465933e-01  9.9528133009414355e-01  9.9531784465046302e-01  9.9535940494135877e-01  9.9540290953788169e-01  9.9544205930862473e-01  9.9546551567646779e-01  9.9545422476958056e-01  9.9537762402553809e-01  9.9518844929301420e-01  9.9481599296398593e-01  9.9415809951209644e-01  9.9307326098698201e-01  9.9137651838696472e-01  9.8884759198511629e-01  9.8526859782569831e-01  9.8052475489117552e-01  9.7482908545512748e-01  9.6917853172790824e-01  9.6620522102468231e-01  9.6413261786730076e-01  9.6725559343349454e-01  9.7325464962478925e-01  9.7938547725948999e-01  9.8457750327490035e-01  9.8857459365989098e-01  9.9147049094669204e-01  9.9347650372039331e-01  9.9481476774504607e-01  9.9567628273155340e-01  9.9621010162996815e-01  9.9652591887753539e-01  9.9670124014958417e-01  9.9678911642437495e-01  9.9682486589860542e-01  9.9683136457878729e-01  9.9682297963310884e-01  9.9680838862501708e-01  9.9679255054747340e-01  9.9677805989651624e-01  9.9676606459038875e-01  9.9675688039580945e-01  9.9675039532162302e-01  9.9674632854083756e-01  9.9674438864868298e-01  9.9674436303693748e-01  9.9674616095454460e-01  9.9674982479726515e-01  9.9675551566146559e-01  9.9676346979140218e-01  9.9677391266966675e-01  9.9678690749357035e-01  9.9680210401865110e-01  9.9681834029135397e-01  9.9683303075644691e-01  9.9684124667963192e-01  9.9683435694708433e-01  9.9679804997643373e-01  9.9670950721874529e-01  9.9653346372904061e-01  9.9621691351871222e-01  9.9568238587184377e-01  9.9482021162734435e-01  9.9348135543053084e-01  9.9147483048810892e-01  9.8857851240529593e-01  9.8458110440891300e-01  9.7938887514217465e-01  9.7325796188376701e-01  9.6725891433194555e-01  9.6413592768733669e-01  9.6239275094018117e-01  9.6563056078228682e-01  9.7189701893473046e-01  9.7836245283385292e-01  9.8390045893067535e-01  9.8822202029949269e-01  9.9140445303726432e-01  9.9365347227307210e-01  9.9519205745523065e-01  9.9621537457183462e-01  9.9687795534032375e-01  9.9729510985188297e-01  9.9754949004707716e-01  9.9769857296153042e-01  9.9778133504027200e-01  9.9782359975407053e-01  9.9784207372562816e-01  9.9784728183850901e-01  9.9784565015346449e-01  9.9784095884224944e-01  9.9783534037279698e-01  9.9782995136461305e-01  9.9782540859978541e-01  9.9782205339204277e-01  9.9782009305276720e-01  9.9781966007553557e-01  9.9782082384770432e-01  9.9782358141465466e-01  9.9782784065533092e-01  9.9783339217532852e-01  9.9783984874292841e-01  9.9784651653997891e-01  9.9785215161460539e-01  9.9785454499327808e-01  9.9784986596477165e-01  9.9783167015011287e-01  9.9778944445270534e-01  9.9770651636991203e-01  9.9755710883905080e-01  9.9730229467232834e-01  9.9688464192785875e-01  9.9622153574237959e-01  9.9519769430276417e-01  9.9365860706622244e-01  9.9140912541701742e-01  9.8822628726283002e-01  9.8390439752877890e-01  9.7836616215635797e-01  9.7190061409230566e-01  9.6563414502553535e-01  9.6239631107200585e-01  9.6095137125280949e-01  9.6427747605949532e-01  9.7074944489261228e-01  9.7747223146801709e-01  9.8327686280916948e-01  9.8784921811255100e-01  9.9125391757026438e-01  9.9369213535544321e-01  9.9538719601773362e-01  9.9653718889502285e-01  9.9730064422471021e-01  9.9779704741964392e-01  9.9811292153344067e-01  9.9830909695045311e-01  9.9842733179223542e-01  9.9849569411158079e-01  9.9853267750217067e-01  9.9855023535336740e-01  9.9855596769141897e-01  9.9855467212729021e-01  9.9854942367012178e-01  9.9854230027988222e-01  9.9853483381823105e-01  9.9852824492085679e-01  9.9852351514390769e-01  9.9852135452542523e-01  9.9852212684173836e-01  9.9852578754814680e-01  9.9853186575808084e-01  9.9853948611821230e-01  9.9854739064076647e-01  9.9855389583898024e-01  9.9855671093614051e-01  9.9855254316688635e-01  9.9853641532630077e-01  9.9850060839850430e-01  9.9843311331347262e-01  9.9831543312141846e-01  9.9811953147639509e-01  9.9780369963326698e-01  9.9730716051984647e-01  9.9654343978197113e-01  9.9539309264842701e-01  9.9369762215785329e-01  9.9125896836378402e-01  9.8785383692712281e-01  9.8328108865249453e-01  9.7747614340557953e-01  9.7075315908521986e-01  9.6428111824999574e-01  9.6095495920895357e-01  9.5977293153201826e-01  9.6316700142903100e-01  9.6979706910282615e-01  9.7671787037396440e-01  9.8272784742617314e-01  9.8749367009716871e-01  9.9107017636741424e-01  9.9365492931733113e-01  9.9547134638756818e-01  9.9671958352418699e-01  9.9756108146581146e-01  9.9811839584286277e-01  9.9848090363378061e-01  9.9871189790813564e-01  9.9885515843204997e-01  9.9894035978751117e-01  9.9898725900357255e-01  9.9900883088119896e-01  9.9901357335469954e-01  9.9900718169894653e-01  9.9899373764870891e-01  9.9897650445800934e-01  9.9895837928839248e-01  9.9894204190194635e-01  9.9892985629297615e-01  9.9892361861735890e-01  9.9892427608709677e-01  9.9893173995713747e-01  9.9894486823165174e-01  9.9896161307547393e-01  9.9897924735738652e-01  9.9899453703266539e-01  9.9900372302696683e-01  9.9900220407089391e-01  9.9898384305950760e-01  9.9893983008098119e-01  9.9885701556098361e-01  9.9871558261153570e-01  9.9848587655748233e-01  9.9812418220171717e-01  9.9756728797405114e-01  9.9672589749100715e-01  9.9547752632089426e-01  9.9366079437042476e-01  9.9107559955686153e-01  9.8749857781072026e-01  9.8273222511465919e-01  9.7672177079986611e-01  9.6980061382035720e-01  9.6317035616688829e-01  9.5977617827433648e-01  9.5882174993513491e-01  9.6226811812566737e-01  9.6901978613909179e-01  9.7609289102389629e-01  9.8226087883229873e-01  9.8717568463085881e-01  9.9088460235533904e-01  9.9358233704660870e-01  9.9549225432351951e-01  9.9681595328437766e-01  9.9771695525837290e-01  9.9832000862505721e-01  9.9871649920868677e-01  9.9897140098423698e-01  9.9912980251375672e-01  9.9922233965797369e-01  9.9926946117652971e-01  9.9928468918875113e-01  9.9927709158444777e-01  9.9925315112632707e-01  9.9921814513438567e-01  9.9917707258118671e-01  9.9913511210542405e-01  9.9909759341458038e-01  9.9906953024170686e-01  9.9905487697622208e-01  9.9905577537339940e-01  9.9907207880887439e-01  9.9910133957880409e-01  9.9913925209302312e-01  9.9918035343579104e-01  9.9921868316407791e-01  9.9924812581599021e-01  9.9926226088970371e-01  9.9925365288102164e-01  9.9921257202758662e-01  9.9912512810743659e-01  9.9897074219339332e-01  9.9871880916271205e-01  9.9832435976780143e-01  9.9772257307756296e-01  9.9682221559058426e-01  9.9549867386933333e-01  9.9358854063032664e-01  9.9089031488989265e-01  9.8718072267303636e-01  9.8226515444428852e-01  9.7609642254736229e-01  9.6902270571356031e-01  9.6227065369597486e-01  9.5882409183558059e-01  9.5806435687757519e-01  9.6155087590753063e-01  9.6839589317665120e-01  9.7558593952149120e-01  9.8187528400737156e-01  9.8690453826627711e-01  9.9071515754583817e-01  9.9349956720766741e-01  9.9548097233745003e-01  9.9686192703705045e-01  9.9780736254625579e-01  9.9844347930847133e-01  9.9886291474121280e-01  9.9913156631494604e-01  9.9929507226430248e-01  9.9938426694102356e-01  9.9941953970913289e-01  9.9941427109851622e-01  9.9937757321414944e-01  9.9931650950581874e-01  9.9923785689280886e-01  9.9914933920772797e-01  9.9906015927454672e-01  9.9898065883057707e-01  9.9892109586577749e-01  9.9888982693566730e-01  9.9889148230010194e-01  9.9892582249543060e-01  9.9898773913598915e-01  9.9906838686724797e-01  9.9915696274388399e-01  9.9924243397754153e-01  9.9931462186815789e-01  9.9936434719971379e-01  9.9938263141788874e-01  9.9935909837497017e-01  9.9927971563974971e-01  9.9912390930174610e-01  9.9886095804291875e-01  9.9844548795008270e-01  9.9781191335239483e-01  9.9686789476501281e-01  9.9548748811456778e-01  9.9350597222084125e-01  9.9072096576496460e-01  9.8690941521844799e-01  9.8187904352229605e-01  9.7558855523826638e-01  9.6839751386055917e-01  9.6155181935089684e-01  9.5806497891732412e-01  9.5747067608697245e-01  9.6098786828488103e-01  9.6790423991801011e-01  9.7518373379327328e-01  9.8156594051567658e-01  9.8668276225738383e-01  9.9057110919473146e-01  9.9342155234376117e-01  9.9545702726969143e-01  9.9688062640081954e-01  9.9785810550068288e-01  9.9851643526717082e-01  9.9894875096756997e-01  9.9922104128775435e-01  9.9937856206326114e-01  9.9945129769504681e-01  9.9945842704166221e-01  9.9941201265333401e-01  9.9932018730156569e-01  9.9919002895964315e-01  9.9903012156037507e-01  9.9885253049698519e-01  9.9867367482818736e-01  9.9851352576103347e-01  9.9839288711446950e-01  9.9832924213361085e-01  9.9833248064234470e-01  9.9840219107888883e-01  9.9852769710078626e-01  9.9869080812374400e-01  9.9887006152690838e-01  9.9904476652836904e-01  9.9919755149000156e-01  9.9931493954675799e-01  9.9938618602726093e-01  9.9940092064436581e-01  9.9934607712808010e-01  9.9920234471111635e-01  9.9894011477546008e-01  9.9851473028211801e-01  9.9786083889676414e-01  9.9688587964643216e-01  9.9546335577279776e-01  9.9342788475240251e-01  9.9057666687040080e-01  9.8668700819123267e-01  9.8156855993707226e-01  9.7518464292642471e-01  9.6790361096698063e-01  9.6098614244018732e-01  9.5746844694761524e-01  9.5701446411615687e-01  9.6055488674680212e-01  9.6752538232838337e-01  9.7487282543027176e-01  9.8132563174909548e-01  9.8650900697013577e-01  9.9045629364445398e-01  9.9335650571839740e-01  9.9543218090498664e-01  9.9688656092132366e-01  9.9788566795750555e-01  9.9855654988086207e-01  9.9899200126440579e-01  9.9925707461777413e