<?xml version="1.0"?>
<VTKFile type="UnstructuredGrid"  version="0.1"  >
<UnstructuredGrid>
<Piece  NumberOfPoints="5101" NumberOfCells="10000">
<Points>
<DataArray  type="Float64"  NumberOfComponents="3"  format="ascii">0 0 0  0.2 0 0  0.4 0 0  0.6 0 0  0.8 0 0  1 0 0  1.2 0 0  1.4 0 0  1.6 0 0  1.8 0 0  2 0 0  2.2 0 0  2.4 0 0  2.6 0 0  2.8 0 0  3 0 0  3.2 0 0  3.4 0 0  3.6 0 0  3.8 0 0  4 0 0  4.2 0 0  4.4 0 0  4.6 0 0  4.8 0 0  5 0 0  5.2 0 0  5.4 0 0  5.6 0 0  5.8 0 0  6 0 0  6.2 0 0  6.4 0 0  6.6 0 0  6.8 0 0  7 0 0  7.2 0 0  7.4 0 0  7.6 0 0  7.8 0 0  8 0 0  8.199999999999999 0 0  8.4 0 0  8.6 0 0  8.800000000000001 0 0  9 0 0  9.199999999999999 0 0  9.4 0 0  9.6 0 0  9.800000000000001 0 0  10 0 0  0 0.2 0  0.2 0.2 0  0.4 0.2 0  0.6 0.2 0  0.8 0.2 0  1 0.2 0  1.2 0.2 0  1.4 0.2 0  1.6 0.2 0  1.8 0.2 0  2 0.2 0  2.2 0.2 0  2.4 0.2 0  2.6 0.2 0  2.8 0.2 0  3 0.2 0  3.2 0.2 0  3.4 0.2 0  3.6 0.2 0  3.8 0.2 0  4 0.2 0  4.2 0.2 0  4.4 0.2 0  4.6 0.2 0  4.8 0.2 0  5 0.2 0  5.2 0.2 0  5.4 0.2 0  5.6 0.2 0  5.8 0.2 0  6 0.2 0  6.2 0.2 0  6.4 0.2 0  6.6 0.2 0  6.8 0.2 0  7 0.2 0  7.2 0.2 0  7.4 0.2 0  7.6 0.2 0  7.8 0.2 0  8 0.2 0  8.199999999999999 0.2 0  8.4 0.2 0  8.6 0.2 0  8.800000000000001 0.2 0  9 0.2 0  9.199999999999999 0.2 0  9.4 0.2 0  9.6 0.2 0  9.800000000000001 0.2 0  10 0.2 0  0 0.4 0  0.2 0.4 0  0.4 0.4 0  0.6 0.4 0  0.8 0.4 0  1 0.4 0  1.2 0.4 0  1.4 0.4 0  1.6 0.4 0  1.8 0.4 0  2 0.4 0  2.2 0.4 0  2.4 0.4 0  2.6 0.4 0  2.8 0.4 0  3 0.4 0  3.2 0.4 0  3.4 0.4 0  3.6 0.4 0  3.8 0.4 0  4 0.4 0  4.2 0.4 0  4.4 0.4 0  4.6 0.4 0  4.8 0.4 0  5 0.4 0  5.2 0.4 0  5.4 0.4 0  5.6 0.4 0  5.8 0.4 0  6 0.4 0  6.2 0.4 0  6.4 0.4 0  6.6 0.4 0  6.8 0.4 0  7 0.4 0  7.2 0.4 0  7.4 0.4 0  7.6 0.4 0  7.8 0.4 0  8 0.4 0  8.199999999999999 0.4 0  8.4 0.4 0  8.6 0.4 0  8.800000000000001 0.4 0  9 0.4 0  9.199999999999999 0.4 0  9.4 0.4 0  9.6 0.4 0  9.800000000000001 0.4 0  10 0.4 0  0 0.6 0  0.2 0.6 0  0.4 0.6 0  0.6 0.6 0  0.8 0.6 0  1 0.6 0  1.2 0.6 0  1.4 0.6 0  1.6 0.6 0  1.8 0.6 0  2 0.6 0  2.2 0.6 0  2.4 0.6 0  2.6 0.6 0  2.8 0.6 0  3 0.6 0  3.2 0.6 0  3.4 0.6 0  3.6 0.6 0  3.8 0.6 0  4 0.6 0  4.2 0.6 0  4.4 0.6 0  4.6 0.6 0  4.8 0.6 0  5 0.6 0  5.2 0.6 0  5.4 0.6 0  5.6 0.6 0  5.8 0.6 0  6 0.6 0  6.2 0.6 0  6.4 0.6 0  6.6 0.6 0  6.8 0.6 0  7 0.6 0  7.2 0.6 0  7.4 0.6 0  7.6 0.6 0  7.8 0.6 0  8 0.6 0  8.199999999999999 0.6 0  8.4 0.6 0  8.6 0.6 0  8.800000000000001 0.6 0  9 0.6 0  9.199999999999999 0.6 0  9.4 0.6 0  9.6 0.6 0  9.800000000000001 0.6 0  10 0.6 0  0 0.8 0  0.2 0.8 0  0.4 0.8 0  0.6 0.8 0  0.8 0.8 0  1 0.8 0  1.2 0.8 0  1.4 0.8 0  1.6 0.8 0  1.8 0.8 0  2 0.8 0  2.2 0.8 0  2.4 0.8 0  2.6 0.8 0  2.8 0.8 0  3 0.8 0  3.2 0.8 0  3.4 0.8 0  3.6 0.8 0  3.8 0.8 0  4 0.8 0  4.2 0.8 0  4.4 0.8 0  4.6 0.8 0  4.8 0.8 0  5 0.8 0  5.2 0.8 0  5.4 0.8 0  5.6 0.8 0  5.8 0.8 0  6 0.8 0  6.2 0.8 0  6.4 0.8 0  6.6 0.8 0  6.8 0.8 0  7 0.8 0  7.2 0.8 0  7.4 0.8 0  7.6 0.8 0  7.8 0.8 0  8 0.8 0  8.199999999999999 0.8 0  8.4 0.8 0  8.6 0.8 0  8.800000000000001 0.8 0  9 0.8 0  9.199999999999999 0.8 0  9.4 0.8 0  9.6 0.8 0  9.800000000000001 0.8 0  10 0.8 0  0 1 0  0.2 1 0  0.4 1 0  0.6 1 0  0.8 1 0  1 1 0  1.2 1 0  1.4 1 0  1.6 1 0  1.8 1 0  2 1 0  2.2 1 0  2.4 1 0  2.6 1 0  2.8 1 0  3 1 0  3.2 1 0  3.4 1 0  3.6 1 0  3.8 1 0  4 1 0  4.2 1 0  4.4 1 0  4.6 1 0  4.8 1 0  5 1 0  5.2 1 0  5.4 1 0  5.6 1 0  5.8 1 0  6 1 0  6.2 1 0  6.4 1 0  6.6 1 0  6.8 1 0  7 1 0  7.2 1 0  7.4 1 0  7.6 1 0  7.8 1 0  8 1 0  8.199999999999999 1 0  8.4 1 0  8.6 1 0  8.800000000000001 1 0  9 1 0  9.199999999999999 1 0  9.4 1 0  9.6 1 0  9.800000000000001 1 0  10 1 0  0 1.2 0  0.2 1.2 0  0.4 1.2 0  0.6 1.2 0  0.8 1.2 0  1 1.2 0  1.2 1.2 0  1.4 1.2 0  1.6 1.2 0  1.8 1.2 0  2 1.2 0  2.2 1.2 0  2.4 1.2 0  2.6 1.2 0  2.8 1.2 0  3 1.2 0  3.2 1.2 0  3.4 1.2 0  3.6 1.2 0  3.8 1.2 0  4 1.2 0  4.2 1.2 0  4.4 1.2 0  4.6 1.2 0  4.8 1.2 0  5 1.2 0  5.2 1.2 0  5.4 1.2 0  5.6 1.2 0  5.8 1.2 0  6 1.2 0  6.2 1.2 0  6.4 1.2 0  6.6 1.2 0  6.8 1.2 0  7 1.2 0  7.2 1.2 0  7.4 1.2 0  7.6 1.2 0  7.8 1.2 0  8 1.2 0  8.199999999999999 1.2 0  8.4 1.2 0  8.6 1.2 0  8.800000000000001 1.2 0  9 1.2 0  9.199999999999999 1.2 0  9.4 1.2 0  9.6 1.2 0  9.800000000000001 1.2 0  10 1.2 0  0 1.4 0  0.2 1.4 0  0.4 1.4 0  0.6 1.4 0  0.8 1.4 0  1 1.4 0  1.2 1.4 0  1.4 1.4 0  1.6 1.4 0  1.8 1.4 0  2 1.4 0  2.2 1.4 0  2.4 1.4 0  2.6 1.4 0  2.8 1.4 0  3 1.4 0  3.2 1.4 0  3.4 1.4 0  3.6 1.4 0  3.8 1.4 0  4 1.4 0  4.2 1.4 0  4.4 1.4 0  4.6 1.4 0  4.8 1.4 0  5 1.4 0  5.2 1.4 0  5.4 1.4 0  5.6 1.4 0  5.8 1.4 0  6 1.4 0  6.2 1.4 0  6.4 1.4 0  6.6 1.4 0  6.8 1.4 0  7 1.4 0  7.2 1.4 0  7.4 1.4 0  7.6 1.4 0  7.8 1.4 0  8 1.4 0  8.199999999999999 1.4 0  8.4 1.4 0  8.6 1.4 0  8.800000000000001 1.4 0  9 1.4 0  9.199999999999999 1.4 0  9.4 1.4 0  9.6 1.4 0  9.800000000000001 1.4 0  10 1.4 0  0 1.6 0  0.2 1.6 0  0.4 1.6 0  0.6 1.6 0  0.8 1.6 0  1 1.6 0  1.2 1.6 0  1.4 1.6 0  1.6 1.6 0  1.8 1.6 0  2 1.6 0  2.2 1.6 0  2.4 1.6 0  2.6 1.6 0  2.8 1.6 0  3 1.6 0  3.2 1.6 0  3.4 1.6 0  3.6 1.6 0  3.8 1.6 0  4 1.6 0  4.2 1.6 0  4.4 1.6 0  4.6 1.6 0  4.8 1.6 0  5 1.6 0  5.2 1.6 0  5.4 1.6 0  5.6 1.6 0  5.8 1.6 0  6 1.6 0  6.2 1.6 0  6.4 1.6 0  6.6 1.6 0  6.8 1.6 0  7 1.6 0  7.2 1.6 0  7.4 1.6 0  7.6 1.6 0  7.8 1.6 0  8 1.6 0  8.199999999999999 1.6 0  8.4 1.6 0  8.6 1.6 0  8.800000000000001 1.6 0  9 1.6 0  9.199999999999999 1.6 0  9.4 1.6 0  9.6 1.6 0  9.800000000000001 1.6 0  10 1.6 0  0 1.8 0  0.2 1.8 0  0.4 1.8 0  0.6 1.8 0  0.8 1.8 0  1 1.8 0  1.2 1.8 0  1.4 1.8 0  1.6 1.8 0  1.8 1.8 0  2 1.8 0  2.2 1.8 0  2.4 1.8 0  2.6 1.8 0  2.8 1.8 0  3 1.8 0  3.2 1.8 0  3.4 1.8 0  3.6 1.8 0  3.8 1.8 0  4 1.8 0  4.2 1.8 0  4.4 1.8 0  4.6 1.8 0  4.8 1.8 0  5 1.8 0  5.2 1.8 0  5.4 1.8 0  5.6 1.8 0  5.8 1.8 0  6 1.8 0  6.2 1.8 0  6.4 1.8 0  6.6 1.8 0  6.8 1.8 0  7 1.8 0  7.2 1.8 0  7.4 1.8 0  7.6 1.8 0  7.8 1.8 0  8 1.8 0  8.199999999999999 1.8 0  8.4 1.8 0  8.6 1.8 0  8.800000000000001 1.8 0  9 1.8 0  9.199999999999999 1.8 0  9.4 1.8 0  9.6 1.8 0  9.800000000000001 1.8 0  10 1.8 0  0 2 0  0.2 2 0  0.4 2 0  0.6 2 0  0.8 2 0  1 2 0  1.2 2 0  1.4 2 0  1.6 2 0  1.8 2 0  2 2 0  2.2 2 0  2.4 2 0  2.6 2 0  2.8 2 0  3 2 0  3.2 2 0  3.4 2 0  3.6 2 0  3.8 2 0  4 2 0  4.2 2 0  4.4 2 0  4.6 2 0  4.8 2 0  5 2 0  5.2 2 0  5.4 2 0  5.6 2 0  5.8 2 0  6 2 0  6.2 2 0  6.4 2 0  6.6 2 0  6.8 2 0  7 2 0  7.2 2 0  7.4 2 0  7.6 2 0  7.8 2 0  8 2 0  8.199999999999999 2 0  8.4 2 0  8.6 2 0  8.800000000000001 2 0  9 2 0  9.199999999999999 2 0  9.4 2 0  9.6 2 0  9.800000000000001 2 0  10 2 0  0 2.2 0  0.2 2.2 0  0.4 2.2 0  0.6 2.2 0  0.8 2.2 0  1 2.2 0  1.2 2.2 0  1.4 2.2 0  1.6 2.2 0  1.8 2.2 0  2 2.2 0  2.2 2.2 0  2.4 2.2 0  2.6 2.2 0  2.8 2.2 0  3 2.2 0  3.2 2.2 0  3.4 2.2 0  3.6 2.2 0  3.8 2.2 0  4 2.2 0  4.2 2.2 0  4.4 2.2 0  4.6 2.2 0  4.8 2.2 0  5 2.2 0  5.2 2.2 0  5.4 2.2 0  5.6 2.2 0  5.8 2.2 0  6 2.2 0  6.2 2.2 0  6.4 2.2 0  6.6 2.2 0  6.8 2.2 0  7 2.2 0  7.2 2.2 0  7.4 2.2 0  7.6 2.2 0  7.8 2.2 0  8 2.2 0  8.199999999999999 2.2 0  8.4 2.2 0  8.6 2.2 0  8.800000000000001 2.2 0  9 2.2 0  9.199999999999999 2.2 0  9.4 2.2 0  9.6 2.2 0  9.800000000000001 2.2 0  10 2.2 0  0 2.4 0  0.2 2.4 0  0.4 2.4 0  0.6 2.4 0  0.8 2.4 0  1 2.4 0  1.2 2.4 0  1.4 2.4 0  1.6 2.4 0  1.8 2.4 0  2 2.4 0  2.2 2.4 0  2.4 2.4 0  2.6 2.4 0  2.8 2.4 0  3 2.4 0  3.2 2.4 0  3.4 2.4 0  3.6 2.4 0  3.8 2.4 0  4 2.4 0  4.2 2.4 0  4.4 2.4 0  4.6 2.4 0  4.8 2.4 0  5 2.4 0  5.2 2.4 0  5.4 2.4 0  5.6 2.4 0  5.8 2.4 0  6 2.4 0  6.2 2.4 0  6.4 2.4 0  6.6 2.4 0  6.8 2.4 0  7 2.4 0  7.2 2.4 0  7.4 2.4 0  7.6 2.4 0  7.8 2.4 0  8 2.4 0  8.199999999999999 2.4 0  8.4 2.4 0  8.6 2.4 0  8.800000000000001 2.4 0  9 2.4 0  9.199999999999999 2.4 0  9.4 2.4 0  9.6 2.4 0  9.800000000000001 2.4 0  10 2.4 0  0 2.6 0  0.2 2.6 0  0.4 2.6 0  0.6 2.6 0  0.8 2.6 0  1 2.6 0  1.2 2.6 0  1.4 2.6 0  1.6 2.6 0  1.8 2.6 0  2 2.6 0  2.2 2.6 0  2.4 2.6 0  2.6 2.6 0  2.8 2.6 0  3 2.6 0  3.2 2.6 0  3.4 2.6 0  3.6 2.6 0  3.8 2.6 0  4 2.6 0  4.2 2.6 0  4.4 2.6 0  4.6 2.6 0  4.8 2.6 0  5 2.6 0  5.2 2.6 0  5.4 2.6 0  5.6 2.6 0  5.8 2.6 0  6 2.6 0  6.2 2.6 0  6.4 2.6 0  6.6 2.6 0  6.8 2.6 0  7 2.6 0  7.2 2.6 0  7.4 2.6 0  7.6 2.6 0  7.8 2.6 0  8 2.6 0  8.199999999999999 2.6 0  8.4 2.6 0  8.6 2.6 0  8.800000000000001 2.6 0  9 2.6 0  9.199999999999999 2.6 0  9.4 2.6 0  9.6 2.6 0  9.800000000000001 2.6 0  10 2.6 0  0 2.8 0  0.2 2.8 0  0.4 2.8 0  0.6 2.8 0  0.8 2.8 0  1 2.8 0  1.2 2.8 0  1.4 2.8 0  1.6 2.8 0  1.8 2.8 0  2 2.8 0  2.2 2.8 0  2.4 2.8 0  2.6 2.8 0  2.8 2.8 0  3 2.8 0  3.2 2.8 0  3.4 2.8 0  3.6 2.8 0  3.8 2.8 0  4 2.8 0  4.2 2.8 0  4.4 2.8 0  4.6 2.8 0  4.8 2.8 0  5 2.8 0  5.2 2.8 0  5.4 2.8 0  5.6 2.8 0  5.8 2.8 0  6 2.8 0  6.2 2.8 0  6.4 2.8 0  6.6 2.8 0  6.8 2.8 0  7 2.8 0  7.2 2.8 0  7.4 2.8 0  7.6 2.8 0  7.8 2.8 0  8 2.8 0  8.199999999999999 2.8 0  8.4 2.8 0  8.6 2.8 0  8.800000000000001 2.8 0  9 2.8 0  9.199999999999999 2.8 0  9.4 2.8 0  9.6 2.8 0  9.800000000000001 2.8 0  10 2.8 0  0 3 0  0.2 3 0  0.4 3 0  0.6 3 0  0.8 3 0  1 3 0  1.2 3 0  1.4 3 0  1.6 3 0  1.8 3 0  2 3 0  2.2 3 0  2.4 3 0  2.6 3 0  2.8 3 0  3 3 0  3.2 3 0  3.4 3 0  3.6 3 0  3.8 3 0  4 3 0  4.2 3 0  4.4 3 0  4.6 3 0  4.8 3 0  5 3 0  5.2 3 0  5.4 3 0  5.6 3 0  5.8 3 0  6 3 0  6.2 3 0  6.4 3 0  6.6 3 0  6.8 3 0  7 3 0  7.2 3 0  7.4 3 0  7.6 3 0  7.8 3 0  8 3 0  8.199999999999999 3 0  8.4 3 0  8.6 3 0  8.800000000000001 3 0  9 3 0  9.199999999999999 3 0  9.4 3 0  9.6 3 0  9.800000000000001 3 0  10 3 0  0 3.2 0  0.2 3.2 0  0.4 3.2 0  0.6 3.2 0  0.8 3.2 0  1 3.2 0  1.2 3.2 0  1.4 3.2 0  1.6 3.2 0  1.8 3.2 0  2 3.2 0  2.2 3.2 0  2.4 3.2 0  2.6 3.2 0  2.8 3.2 0  3 3.2 0  3.2 3.2 0  3.4 3.2 0  3.6 3.2 0  3.8 3.2 0  4 3.2 0  4.2 3.2 0  4.4 3.2 0  4.6 3.2 0  4.8 3.2 0  5 3.2 0  5.2 3.2 0  5.4 3.2 0  5.6 3.2 0  5.8 3.2 0  6 3.2 0  6.2 3.2 0  6.4 3.2 0  6.6 3.2 0  6.8 3.2 0  7 3.2 0  7.2 3.2 0  7.4 3.2 0  7.6 3.2 0  7.8 3.2 0  8 3.2 0  8.199999999999999 3.2 0  8.4 3.2 0  8.6 3.2 0  8.800000000000001 3.2 0  9 3.2 0  9.199999999999999 3.2 0  9.4 3.2 0  9.6 3.2 0  9.800000000000001 3.2 0  10 3.2 0  0 3.4 0  0.2 3.4 0  0.4 3.4 0  0.6 3.4 0  0.8 3.4 0  1 
[...]
<PointData  Scalars="f_5"> 
<DataArray  type="Float64"  Name="f_5"  format="ascii">1.4191260279344068e-02  1.0852711234870682e-01  1.5475023943540220e-01  1.8175559331418051e-01  1.9838640994025233e-01  2.0829636726378609e-01  2.1361097025091910e-01  2.1563892864692891e-01  2.1524970141988908e-01  2.1305124736298267e-01  2.0948994931050943e-01  2.0491032053590133e-01  1.9959223445803323e-01  1.9377476175988226e-01  1.8767145222924012e-01  1.8147977712434762e-01  1.7538632930373504e-01  1.6956878550796103e-01  1.6419534185527054e-01  1.5942221798415493e-01  1.5538981168572649e-01  1.5221811891168480e-01  1.5000206829183602e-01  1.4880741762736591e-01  1.4866779630993140e-01  1.4958334179635882e-01  1.5152117794207459e-01  1.5441774326859903e-01  1.5818273500272476e-01  1.6270422952149932e-01  1.6785440370092933e-01  1.7349523102763467e-01  1.7948355849081024e-01  1.8567506510987936e-01  1.9192672873605171e-01  1.9809754847865604e-01  2.0404735153267853e-01  2.0963352553295156e-01  2.1470543330022207e-01  2.1909605278498254e-01  2.2260998653147876e-01  2.2500629644880460e-01  2.2597342475563359e-01  2.2509128704541123e-01  2.2177134447440408e-01  2.1515679203362553e-01  2.0394510594967372e-01  1.8601094418678485e-01  1.5769451671211882e-01  1.1013790404390711e-01  1.4479144812271375e-02  5.6659290960750361e-03  5.8691887028830145e-02  9.3478205027239109e-02  1.1737796365247670e-01  1.3213218892001777e-01  1.4103361269468614e-01  1.4569155180266119e-01  1.4726570453845494e-01  1.4654138639371539e-01  1.4407962508134611e-01  1.4029940412234790e-01  1.3552830453243994e-01  1.3003554732232298e-01  1.2405362370140169e-01  1.1779235725137260e-01  1.1144764034714509e-01  1.0520618629149145e-01  9.9247156998739261e-02  9.3741292138435364e-02  8.8848087317702815e-02  8.4711583833989482e-02  8.1455390199405134e-02  7.9177610822352917e-02  7.7946370519998462e-02  7.7796565975161575e-02  7.8728334362538080e-02  8.0707513302883116e-02  8.3668103443073821e-02  8.7516477796634837e-02  9.2136856383560645e-02  9.7397417752208559e-02  1.0315636928739480e-01  1.0926734200077390e-01  1.1558358898535694e-01  1.2196061351267598e-01  1.2825699293693824e-01  1.3433326206720675e-01  1.4004874558130331e-01  1.4525615990222907e-01  1.4979361568721963e-01  1.5347330353409394e-01  1.5606556259229909e-01  1.5727605261823976e-01  1.5671209574358733e-01  1.5383188443279380e-01  1.4786241378887544e-01  1.3764978323497229e-01  1.2158443076304308e-01  9.6368082499370150e-02  6.0244587079748446e-02  5.8632851623601785e-03  1.8513011755476921e-03  3.1089725542163542e-02  5.3755661212254870e-02  7.0507547851219834e-02  8.1588028738517851e-02  8.8193910184046154e-02  9.1363058585749196e-02  9.1894507220670787e-02  9.0390327878196092e-02  8.7307628165357143e-02  8.3002779385130954e-02  7.7764632002049056e-02  7.1838299731963748e-02  6.5441846810552234e-02  5.8777619620059111e-02  5.2039389634533882e-02  4.5416070395208973e-02  3.9092529189396853e-02  3.3247914060549208e-02  2.8051928950411097e-02  2.3659579272206330e-02  2.0205035890355123e-02  1.7795380332811448e-02  1.6505050318771735e-02  1.6371763273392605e-02  1.7394537144133280e-02  1.9534161485930918e-02  2.2716135976896056e-02  2.6835748362492820e-02  3.1764675070496157e-02  3.7358308194991446e-02  4.3462967428450357e-02  4.9922236998051837e-02  5.6581839871089099e-02  6.3292672989083795e-02  6.9911825535394545e-02  7.6301544871098886e-02  8.2326174651653455e-02  8.7847053462860980e-02  9.2715224676219052e-02  9.6761563849163401e-02  9.9783568621782434e-02  1.0152756649459094e-01  1.0166447085778658e-01  9.9756602396636307e-02  9.5213847343387031e-02  8.7242257249438307e-02  7.4802800131408845e-02  5.6693679113679146e-02  3.2652429961666875e-02  2.0544877410965880e-03  5.2946541358614831e-04  1.4477011766908274e-02  2.6727505744607017e-02  3.6616288377464612e-02  4.3272657533872376e-02  4.6980548255017088e-02  4.8156069422943371e-02  4.7243860426193697e-02  4.4633250156968285e-02  4.0651062103899800e-02  3.5571927616450900e-02  2.9632557914931832e-02  2.3045091632655314e-02  1.6007933964735776e-02  8.7137564400509033e-03  1.3546646456608774e-03  -5.8754021932740912e-03  -1.2780965088206080e-02  -1.9167861734938375e-02  -2.4848402828827193e-02  -2.9648363464678834e-02  -3.3415105457132450e-02  -3.6025904660560944e-02  -3.7395419853843280e-02  -3.7481247750311301e-02  -3.6286697326850172e-02  -3.3860277559201818e-02  -3.0291868404594812e-02  -2.5706040588631556e-02  -2.0253399677755572e-02  -1.4101069812749906e-02  -7.4234648377294755e-03  -3.9433682634730174e-04  6.8191942063416137e-03  1.4060257963348361e-02  2.1183428357529288e-02  2.8053639268590908e-02  3.4543070570170753e-02  4.0526250139275181e-02  4.5873528176305238e-02  5.0442939915122366e-02  5.4070334579307072e-02  5.6557610012038517e-02  5.7659185085925206e-02  5.7068089353930603e-02  5.4406365364688326e-02  4.9233187794323320e-02  4.1129730041408095e-02  2.9805006396058993e-02  1.6110638294999535e-02  7.4029118150633494e-04  -4.7403631395933113e-04  3.5456103509436273e-03  7.9806389928159544e-03  1.1915592741209045e-02  1.4340967303324681e-02  1.5027077077375892e-02  1.4002871415940980e-02  1.1428371445064416e-02  7.5004037088100741e-03  2.4170214909704055e-03  -3.6333471674287270e-03  -1.0471475300377047e-02  -1.7922582648200153e-02  -2.5810630930394422e-02  -3.3953326517377987e-02  -4.2158743588698477e-02  -5.0224155571461586e-02  -5.7937480249307449e-02  -6.5081559655370935e-02  -7.1441238680667596e-02  -7.6812858263065373e-02  -8.1015369920711400e-02  -8.3901881747501211e-02  -8.5370165188671715e-02  -8.5370592361437986e-02  -8.3910204704290434e-02  -8.1052133276396279e-02  -7.6910310392084499e-02  -7.1640173161673190e-02  -6.5426681490924135e-02  -5.8471313566817937e-02  -5.0979702477175863e-02  -4.3151277280127458e-02  -3.5171783249684153e-02  -2.7209019846924077e-02  -1.9411673428070885e-02  -1.1910808865934323e-02  -4.8234387663658191e-03  1.7424159960136819e-03  7.6816810902180215e-03  1.2885615271918923e-02  1.7235039339702087e-02  2.0594041268293783e-02  2.2805504343173719e-02  2.3691546929659569e-02  2.3065572279126811e-02  2.0769193118704156e-02  1.6767930989914501e-02  1.1280936733201415e-02  5.2957776892060895e-03  -2.5179412856300151e-04  -1.1603721683988179e-03  -4.0426977084348373e-03  -5.4108414547784835e-03  -6.2607071892714023e-03  -7.5366252518605566e-03  -9.6807465957406205e-03  -1.2885283632323217e-02  -1.7185272988673568e-02  -2.2534844892530912e-02  -2.8847374780610207e-02  -3.6014698672370789e-02  -4.3914093488460447e-02  -5.2408840788192156e-02  -6.1345893691645670e-02  -7.0552821835015989e-02  -7.9835509737078703e-02  -8.8977729183908671e-02  -9.7743479357049176e-02  -1.0588273861499345e-01  -1.1314090289361434e-01  -1.1927165858272600e-01  -1.2405238214355450e-01  -1.2730048029379221e-01  -1.2888855218965531e-01  -1.2875605790429065e-01  -1.2691545624314055e-01  -1.2345154994013056e-01  -1.1851390944859580e-01  -1.1230346558731662e-01  -1.0505534721135952e-01  -9.7020542561388479e-02  -8.8448889373624134e-02  -7.9575335096793431e-02  -7.0610567528003210e-02  -6.1736246129824021e-02  -5.3104363317451324e-02  -4.4839834035478039e-02  -3.7045252874687816e-02  -2.9806802009630751e-02  -2.3200436933503397e-02  -1.7297607935645342e-02  -1.2169778223666982e-02  -7.8907413650815290e-03  -4.5350396321265987e-03  -2.1693760533836085e-03  -8.3152943804113669e-04  -4.8830805660288515e-04  -9.5736650025140624e-04  -1.8124901662399603e-03  -2.1357190295663527e-03  -9.2263601155707692e-04  -1.6682077398811875e-03  -9.4656744722349858e-03  -1.5138426956409639e-02  -1.9739956697062064e-02  -2.4098952534822325e-02  -2.8740118094616171e-02  -3.3971191745713183e-02  -3.9951390607597309e-02  -4.6744558892581382e-02  -5.4353657011826616e-02  -6.2740369781033895e-02  -7.1834285828046476e-02  -8.1535524728756956e-02  -9.1713672720748790e-02  -1.0220518439963819e-01  -1.1281100655218590e-01  -1.2329598356644483e-01  -1.3339146529125018e-01  -1.4280230866972612e-01  -1.5121901642883395e-01  -1.5833501543185352e-01  -1.6386806463205808e-01  -1.6758364765143416e-01  -1.6931722580505532e-01  -1.6899174831116645e-01  -1.6662712439391611e-01  -1.6233954054402017e-01  -1.5633034264266812e-01  -1.4886621810003681e-01  -1.4025402741191950e-01  -1.3081439535598852e-01  -1.2085793118725333e-01  -1.1066689326558575e-01  -1.0048365712691391e-01  -9.0505933098189661e-02  -8.0887632591673891e-02  -7.1743729861889566e-02  -6.3157362994759075e-02  -5.5187615185033338e-02  -4.7876736275174699e-02  -4.1255845545107354e-02  -3.5348275867509632e-02  -3.0169581257920929e-02  -2.5722757886588427e-02  -2.1986386333867198e-02  -1.8892239272988214e-02  -1.6288189204420888e-02  -1.3882558956206152e-02  -1.1173965430064723e-02  -7.3661122341676820e-03  -1.4116154737042583e-03  -2.0536099867790136e-03  -1.3393765204911567e-02  -2.2258461385757548e-02  -2.9756953302669708e-02  -3.6611954080733547e-02  -4.3375366119838284e-02  -5.0413164126174491e-02  -5.7961807694583964e-02  -6.6162891529621501e-02  -7.5089646791521331e-02  -8.4763327113985210e-02  -9.5161352554378659e-02  -1.0621946579681393e-01  -1.1782994448491642e-01  -1.2983778013190492e-01  -1.4203671151801167e-01  -1.5416708737817292e-01  -1.6591761652899478e-01  -1.7693297150733558e-01  -1.8682875205157581e-01  -1.9521433501447191e-01  -2.0172261271252662e-01  -2.0604374501311526e-01  -2.0795827010372553e-01  -2.0736386162453535e-01  -2.0429027140492492e-01  -1.9889880331732829e-01  -1.9146570772088120e-01  -1.8235230885911052e-01  -1.7196739514981105e-01  -1.6072857413241673e-01  -1.4902868293169877e-01  -1.3721136657079933e-01  -1.2555739634938751e-01  -1.1428100841746978e-01  -1.0353401617619350e-01  -9.3414822380802731e-02  -8.3979561198341324e-02  -7.5253130866623982e-02  -6.7238529848043932e-02  -5.9923459170778931e-02  -5.3283473468308806e-02  -4.7281004972161561e-02  -4.1859361527440471e-02  -3.6930406482391952e-02  -3.2354177603087377e-02  -2.7908890149925810e-02  -2.3253083460610453e-02  -1.7867773205152239e-02  -1.1070350823495547e-02  -1.7752857098545173e-03  -2.3526816107718486e-03  -1.6237277005480992e-02  -2.7450097283021602e-02  -3.7152952270298717e-02  -4.5984616147931597e-02  -5.4502914326722017e-02  -6.3103565763366273e-02  -7.2072445018046480e-02  -8.1607566212107574e-02  -9.1838537656414698e-02  -1.0283874572447504e-01  -1.1463085626401145e-01  -1.2718679332190264e-01  -1.4042352487032037e-01  -1.5419625804068035e-01  -1.6829100269887759e-01  -1.8241892947259711e-01  -1.9621541112263993e-01  -2.0924686314042756e-01  -2.2102817376801465e-01  -2.3105231680606308e-01  -2.3883150948944168e-01  -2.4394620488719804e-01  -2.4609498623826986e-01  -2.4513619041879417e-01  -2.4111202467512630e-01  -2.3424870155620231e-01  -2.2493126460463350e-01  -2.1365774316381753e-01  -2.0098197420934089e-01  -1.8745625366636895e-01  -1.7358355580013057e-01  -1.5978530926508991e-01  -1.4638625255082546e-01  -1.3361418839312969e-01  -1.2161031764845789e-01  -1.1044530220715978e-01  -1.0013682872991093e-01  -9.0665613387095584e-02  -8.1987995309977676e-02  -7.4044207900759440e-02  -6.6761978246280551e-02  -6.0055303168395871e-02  -5.3818181237203611e-02  -4.7912909894209564e-02  -4.2152360898561329e-02  -3.6275953753201647e-02  -2.9923675342672547e-02  -2.2582730094326774e-02  -1.3664059564146328e-02  -2.0503457776077623e-03  -2.5891656265427418e-03  -1.8259898791066577e-02  -3.1163148523361692e-02  -4.2506470262768610e-02  -5.2865502731495463e-02  -6.2797139956018252e-02  -7.2713875373933229e-02  -8.2935954271215778e-02  -9.3705335978745100e-02  -1.0519989993656319e-01  -1.1754172042016682e-01  -1.3079938362014037e-01  -1.4498477475672361e-01  -1.6004505039909503e-01  -1.7585104413715280e-01  -1.9218406978007743e-01  -2.0872403410842461e-01  -2.2504282804338532e-01  -2.4060781368346063e-01  -2.5480034322527145e-01  -2.6695299612842216e-01  -2.7640609909934177e-01  -2.8257913680404695e-01  -2.8504685340773922e-01  -2.8360519186604849e-01  -2.7831115669773199e-01  -2.6948483557083047e-01  -2.5767068813686511e-01  -2.4356589140306703e-01  -2.2793188822566371e-01  -2.1150813901652027e-01  -1.9494386175717912e-01  -1.7875634369505361e-01  -1.6331649535137296e-01  -1.4885639622297089e-01  -1.3549080046788006e-01  -1.2324460581189389e-01  -1.1208003983488513e-01  -1.0191962695106563e-01  -9.2663060680208464e-02  -8.4197547652328286e-02  -7.6401970150201087e-02  -6.9145469194874437e-02  -6.2280980593490541e-02  -5.5634089019272713e-02  -4.8987332147178993e-02  -4.2060202047706545e-02  -3.4490361831322251e-02  -2.5780880154683716e-02  -1.5417548038566160e-02  -2.2612592574819809e-03  -2.7791861409531575e-03  -1.9636520015659780e-02  -3.3701663189037466e-02  -4.6218150508655784e-02  -5.7715019001236920e-02  -6.8746851886064012e-02  -7.9737732633661559e-02  -9.1035000709019015e-02  -1.0291847578417192e-01  -1.1561119606300194e-01  -1.2928462015857212e-01  -1.4405788796581634e-01  -1.5999096812227123e-01  -1.7707176726300633e-01  -1.9519794435163690e-01  -2.1415521595673720e-01  -2.3359547246427584e-01  -2.5301996854789666e-01  -2.7177481658949448e-01  -2.8906719490399124e-01  -3.0400988848985144e-01  -3.1569776134366884e-01  -3.2331197429406977e-01  -3.2623737044200612e-01  -3.2416889244059977e-01  -3.1717912542858295e-01  -3.0572503759993913e-01  -2.9058757248670447e-01  -2.7275743001731689e-01  -2.5329569185653494e-01  -2.3320238679288030e-01  -2.1331888833299678e-01  -1.9427598875616522e-01  -1.7648538972260858e-01  -1.6016309161396974e-01  -1.4537011258410282e-01  -1.3205769179626514e-01  -1.2010816034264682e-01  -1.0936689720708860e-01  -9.9664055947693717e-02  -9.0826724695812669e-02  -8.2683046031138144e-02  -7.5059938974153403e-02  -6.7775792516528710e-02  -6.0629140954075497e-02  -5.3383895394169580e-02  -4.5751547111308959e-02  -3.7376370758719440e-02  -2.7781737191978566e-02  -1.6513985277388857e-02  -2.4250210937059526e-03  -2.9339665300576602e-03  -2.0485475771921842e-02  -3.5273829714714919e-02  -4.8566487322020763e-02  -6.0858004559757831e-02  -7.2700771774707282e-02  -8.4528774371204721e-02  -9.6713464914011268e-02  -1.0957056722087638e-01  -1.2336893871089129e-01  -1.3833381067890282e-01  -1.5464363157723041e-01  -1.7241969178736358e-01  -1.9170778158429896e-01  -2.1245178507305762e-01  -2.3446038888967641e-01  -2.5737026687194553e-01  -2.8061227751047346e-01  -3.0339104067383416e-01  -3.2469165235774272e-01  -3.4332819894139172e-01  -3.5804442907206768e-01  -3.6766529641886148e-01  -3.7127976200650709e-01  -3.6841577054190283e-01  -3.5915766335772425e-01  -3.4416405886842033e-01  -3.2457208435504653e-01  -3.0181128244323113e-01  -2.7737954838419487e-01  -2.5264020589530706e-01  -2.2868308861733738e-01  -2.0626461676853633e-01  -1.8581666902389524e-01  -1.6750023007292217e-01  -1.5127801632186058e-01  -1.3698617617330983e-01  -1.2439351055039991e-01  -1.1324391957653636e-01  -1.0328254273344903e-01  -9.4268387819534866e-02  -8.5976841330536694e-02  -7.8195088929808171e-02  -7.0712735491834433e-02  -6.3309183621797299e-02  -5.5738597438163534e-02  -4.7712851765173148e-02  -3.8888637122208726e-02  -2.8812647822161124e-02  -1.7081870457014696e-02  -2.5538894898564338e-03  -3.0613638698791688e-03  -2.0887953309672910e-02  -3.6023543266732932e-02  -4.9745519205780991e-02  -6.2522199976818016e-02  -7.4903578651273270e-02  -8.7332942170325362e-02  -1.0020481446986061e-01  -1.1387108854390544e-01  -1.2864948888257796e-01  -1.4482621058051284e-01  -1.6265151567955424e-01  -1.8232666634628236e-01  -2.0398030185470520e-01  -2.2763275787051337e-01  -2.5314809349896955e-01  -2.8017631663793069e-01  -3.0809297892755699e-01  -3.3594997821122957e-01  -3.6245891962319415e-01  -3.8603362974965666e-01  -4.0491607630268839e-01  -4.1739410643660951e-01  -4.2208799019228233e-01  -4.1824343556095894e-01  -4.0594116636642164e-01  -3.8614047609254998e-01  -3.6052474004348073e-01  -3.3119061865961952e-01  -3.0027980747811173e-01  -2.6966181409872420e-01  -2.4073904689295678e-01  -2.1438918067993196e-01  -1.9101503837838052e-01  -1.7065358456351939e-01  -1.5309969114591851e-01  -1.3801553239863704e-01  -1.2501247108820834e-01  -1.1370382621093653e-01  -1.0373303745961329e-01  -9.4783735235908648e-02  -8.6577837474363623e-02  -7.8866415458922409e-02  -7.1416540500621989e-02  -6.3996061112989402e-02  -5.6357192090581223e-02  -4.8219150446607219e-02  -3.9255865650552939e-02  -2.9040520684287304e-02  -1.7214501812822688e-02  -2.6569186484582128e-03  -3.1668107300448470e-03  -2.0900495671784640e-02  -3.6051515584185734e-02  -4.9891380306558764e-02  -6.2867097341875566e-02  -7.5524838065870112e-02  -8.8316232557416621e-02  -1.0165808785068937e-01  -1.1593928963125545e-01  -1.3153033075517587e-01  -1.4878701577829589e-01  -1.6804662658654473e-01  -1.8961397621775661e-01  -2.1373392756668039e-01  -2.4054669971460207e-01  -2.7002303290619306e-01  -3.0187905776676988e-01  -3.3547678439338818e-01  -3.6972654615998307e-01  -4.0302213465076947e-01  -4.3325394857071192e-01  -4.5795106282289022e-01  -4.7458587460434520e-01  -4.8102387015587061e-01  -4.7602283091211495e-01  -4.5961731500925146e-01  -4.3322112815059816e-01  -3.9937330317559577e-01  -3.6120410621780386e-01  -3.2181484201035104e-01  -2.8377654914677869e-01  -2.4886548436476685e-01  -2.1803755746751319e-01  -1.9156610870691637e-01  -1.6924838658923083e-01  -1.5060776425191208e-01  -1.3505307876750927e-01  -1.2198483351412855e-01  -1.1085439761560698e-01  -1.0118850294427777e-01  -9.2591356346695866e-02  -8.4734060847551293e-02  -7.7337910607474955e-02  -7.0155467255472892e-02  -6.2951436883444123e-02  -5.5483998163644306e-02  -4.7486461237894725e-02  -3.8654860189930425e-02  -2.8592702179229351e-02  -1.6982331798299291e-02  -2.7408799163307573e-03  -3.2539283168586080e-03  -2.0563585961570943e-02  -3.5430208650774529e-02  -4.9101904069936753e-02  -6.2006412897859964e-02  -7.4682951330703490e-02  -8.7589220369527751e-02  -1.0116246235480275e-01  -1.1582838832305614e-01  -1.3201327179526695e-01  -1.5015071950544803e-01  -1.7068096992808607e-01  -1.9403915910593417e-01  -2.2062729857762137e-01  -2.5076327525632847e-01  -2.8459953390650433e-01  -3.2200574519180741e-01  -3.6241611991830869e-01  -4.0465622544728214e-01  -4.4678849329609843e-01  -4.8604773636701437e-01  -5.1896485274700310e-01  -5.4177039084093903e-01  -5.5109509192351924e-01  -5.4483316355961409e-01  -5.2286790214038026e-01  -4.8731068170343439e-01  -4.4207448267176030e-01  -3.9192583135703346e-01  -3.4141165652096672e-01  -2.9406138063699322e-01  -2.5205413202629096e-01  -2.1629978315303000e-01  -1.8675431175285429e-01  -1.6279089955522930e-01  -1.4351510932244094e-01  -1.2798288525988027e-01  -1.1532542311183236e-01  -1.0480400781147488e-01  -9.5820205042617124e-02  -8.7901688714464424e-02  -8.0677301915168725e-02  -7.3849278522567868e-02  -6.7166573090018930e-02  -6.0400805243318222e-02  -5.3324818584441672e-02  -4.5693126072795298e-02  -3.7229129548717405e-02  -2.7571175337251074e-02  -1.6441143539385972e-02  -2.8108316405248573e-03  -3.3249499320868511e-03  -1.9907891441486185e-02  -3.4214973605963608e-02  -4.7451796188814274e-02  -6.0026335739225979e-02  -7.2465744023358564e-02  -8.5229538400168184e-02  -9.8771412614145071e-02  -1.1355125497656567e-01  -1.3005127477112338e-01  -1.4878808598255469e-01  -1.7031841724374464e-01  -1.9523413159424244e-01  -2.2413949286584578e-01  -2.5760041184192689e-01  -2.9605212831243338e-01  -3.3965016628084893e-01  -3.8805309873306104e-01  -4.4014101372686010e-01  -4.9370884628368328e-01  -5.4523393961855515e-01  -5.8989083642329920e-01  -6.2202593821060592e-01  -6.3622236060531900e-01  -6.2880823378820339e-01  -5.9926645303288362e-01  -5.5079666827837070e-01  -4.8958311762117945e-01  -4.2304593683538705e-01  -3.5792826652669985e-01  -2.9902702185636204e-01  -2.4885038303506749e-01  -2.0797861995935460e-01  -1.7572105518160072e-01  -1.5074958007651706e-01  -1.3156024766642313e-01  -1.1674433313306407e-01  -1.0511106245089707e-01  -9.5716313628381108e-02  -8.7841563563372443e-02  