<?xml version="1.0"?>
<VTKFile type="UnstructuredGrid"  version="0.1"  >
<UnstructuredGrid>
<Piece  NumberOfPoints="5101" NumberOfCells="10000">
<Points>
<DataArray  type="Float64"  NumberOfComponents="3"  format="ascii">0 0 0  0.2 0 0  0.4 0 0  0.6 0 0  0.8 0 0  1 0 0  1.2 0 0  1.4 0 0  1.6 0 0  1.8 0 0  2 0 0  2.2 0 0  2.4 0 0  2.6 0 0  2.8 0 0  3 0 0  3.2 0 0  3.4 0 0  3.6 0 0  3.8 0 0  4 0 0  4.2 0 0  4.4 0 0  4.6 0 0  4.8 0 0  5 0 0  5.2 0 0  5.4 0 0  5.6 0 0  5.8 0 0  6 0 0  6.2 0 0  6.4 0 0  6.6 0 0  6.8 0 0  7 0 0  7.2 0 0  7.4 0 0  7.6 0 0  7.8 0 0  8 0 0  8.199999999999999 0 0  8.4 0 0  8.6 0 0  8.800000000000001 0 0  9 0 0  9.199999999999999 0 0  9.4 0 0  9.6 0 0  9.800000000000001 0 0  10 0 0  0 0.2 0  0.2 0.2 0  0.4 0.2 0  0.6 0.2 0  0.8 0.2 0  1 0.2 0  1.2 0.2 0  1.4 0.2 0  1.6 0.2 0  1.8 0.2 0  2 0.2 0  2.2 0.2 0  2.4 0.2 0  2.6 0.2 0  2.8 0.2 0  3 0.2 0  3.2 0.2 0  3.4 0.2 0  3.6 0.2 0  3.8 0.2 0  4 0.2 0  4.2 0.2 0  4.4 0.2 0  4.6 0.2 0  4.8 0.2 0  5 0.2 0  5.2 0.2 0  5.4 0.2 0  5.6 0.2 0  5.8 0.2 0  6 0.2 0  6.2 0.2 0  6.4 0.2 0  6.6 0.2 0  6.8 0.2 0  7 0.2 0  7.2 0.2 0  7.4 0.2 0  7.6 0.2 0  7.8 0.2 0  8 0.2 0  8.199999999999999 0.2 0  8.4 0.2 0  8.6 0.2 0  8.800000000000001 0.2 0  9 0.2 0  9.199999999999999 0.2 0  9.4 0.2 0  9.6 0.2 0  9.800000000000001 0.2 0  10 0.2 0  0 0.4 0  0.2 0.4 0  0.4 0.4 0  0.6 0.4 0  0.8 0.4 0  1 0.4 0  1.2 0.4 0  1.4 0.4 0  1.6 0.4 0  1.8 0.4 0  2 0.4 0  2.2 0.4 0  2.4 0.4 0  2.6 0.4 0  2.8 0.4 0  3 0.4 0  3.2 0.4 0  3.4 0.4 0  3.6 0.4 0  3.8 0.4 0  4 0.4 0  4.2 0.4 0  4.4 0.4 0  4.6 0.4 0  4.8 0.4 0  5 0.4 0  5.2 0.4 0  5.4 0.4 0  5.6 0.4 0  5.8 0.4 0  6 0.4 0  6.2 0.4 0  6.4 0.4 0  6.6 0.4 0  6.8 0.4 0  7 0.4 0  7.2 0.4 0  7.4 0.4 0  7.6 0.4 0  7.8 0.4 0  8 0.4 0  8.199999999999999 0.4 0  8.4 0.4 0  8.6 0.4 0  8.800000000000001 0.4 0  9 0.4 0  9.199999999999999 0.4 0  9.4 0.4 0  9.6 0.4 0  9.800000000000001 0.4 0  10 0.4 0  0 0.6 0  0.2 0.6 0  0.4 0.6 0  0.6 0.6 0  0.8 0.6 0  1 0.6 0  1.2 0.6 0  1.4 0.6 0  1.6 0.6 0  1.8 0.6 0  2 0.6 0  2.2 0.6 0  2.4 0.6 0  2.6 0.6 0  2.8 0.6 0  3 0.6 0  3.2 0.6 0  3.4 0.6 0  3.6 0.6 0  3.8 0.6 0  4 0.6 0  4.2 0.6 0  4.4 0.6 0  4.6 0.6 0  4.8 0.6 0  5 0.6 0  5.2 0.6 0  5.4 0.6 0  5.6 0.6 0  5.8 0.6 0  6 0.6 0  6.2 0.6 0  6.4 0.6 0  6.6 0.6 0  6.8 0.6 0  7 0.6 0  7.2 0.6 0  7.4 0.6 0  7.6 0.6 0  7.8 0.6 0  8 0.6 0  8.199999999999999 0.6 0  8.4 0.6 0  8.6 0.6 0  8.800000000000001 0.6 0  9 0.6 0  9.199999999999999 0.6 0  9.4 0.6 0  9.6 0.6 0  9.800000000000001 0.6 0  10 0.6 0  0 0.8 0  0.2 0.8 0  0.4 0.8 0  0.6 0.8 0  0.8 0.8 0  1 0.8 0  1.2 0.8 0  1.4 0.8 0  1.6 0.8 0  1.8 0.8 0  2 0.8 0  2.2 0.8 0  2.4 0.8 0  2.6 0.8 0  2.8 0.8 0  3 0.8 0  3.2 0.8 0  3.4 0.8 0  3.6 0.8 0  3.8 0.8 0  4 0.8 0  4.2 0.8 0  4.4 0.8 0  4.6 0.8 0  4.8 0.8 0  5 0.8 0  5.2 0.8 0  5.4 0.8 0  5.6 0.8 0  5.8 0.8 0  6 0.8 0  6.2 0.8 0  6.4 0.8 0  6.6 0.8 0  6.8 0.8 0  7 0.8 0  7.2 0.8 0  7.4 0.8 0  7.6 0.8 0  7.8 0.8 0  8 0.8 0  8.199999999999999 0.8 0  8.4 0.8 0  8.6 0.8 0  8.800000000000001 0.8 0  9 0.8 0  9.199999999999999 0.8 0  9.4 0.8 0  9.6 0.8 0  9.800000000000001 0.8 0  10 0.8 0  0 1 0  0.2 1 0  0.4 1 0  0.6 1 0  0.8 1 0  1 1 0  1.2 1 0  1.4 1 0  1.6 1 0  1.8 1 0  2 1 0  2.2 1 0  2.4 1 0  2.6 1 0  2.8 1 0  3 1 0  3.2 1 0  3.4 1 0  3.6 1 0  3.8 1 0  4 1 0  4.2 1 0  4.4 1 0  4.6 1 0  4.8 1 0  5 1 0  5.2 1 0  5.4 1 0  5.6 1 0  5.8 1 0  6 1 0  6.2 1 0  6.4 1 0  6.6 1 0  6.8 1 0  7 1 0  7.2 1 0  7.4 1 0  7.6 1 0  7.8 1 0  8 1 0  8.199999999999999 1 0  8.4 1 0  8.6 1 0  8.800000000000001 1 0  9 1 0  9.199999999999999 1 0  9.4 1 0  9.6 1 0  9.800000000000001 1 0  10 1 0  0 1.2 0  0.2 1.2 0  0.4 1.2 0  0.6 1.2 0  0.8 1.2 0  1 1.2 0  1.2 1.2 0  1.4 1.2 0  1.6 1.2 0  1.8 1.2 0  2 1.2 0  2.2 1.2 0  2.4 1.2 0  2.6 1.2 0  2.8 1.2 0  3 1.2 0  3.2 1.2 0  3.4 1.2 0  3.6 1.2 0  3.8 1.2 0  4 1.2 0  4.2 1.2 0  4.4 1.2 0  4.6 1.2 0  4.8 1.2 0  5 1.2 0  5.2 1.2 0  5.4 1.2 0  5.6 1.2 0  5.8 1.2 0  6 1.2 0  6.2 1.2 0  6.4 1.2 0  6.6 1.2 0  6.8 1.2 0  7 1.2 0  7.2 1.2 0  7.4 1.2 0  7.6 1.2 0  7.8 1.2 0  8 1.2 0  8.199999999999999 1.2 0  8.4 1.2 0  8.6 1.2 0  8.800000000000001 1.2 0  9 1.2 0  9.199999999999999 1.2 0  9.4 1.2 0  9.6 1.2 0  9.800000000000001 1.2 0  10 1.2 0  0 1.4 0  0.2 1.4 0  0.4 1.4 0  0.6 1.4 0  0.8 1.4 0  1 1.4 0  1.2 1.4 0  1.4 1.4 0  1.6 1.4 0  1.8 1.4 0  2 1.4 0  2.2 1.4 0  2.4 1.4 0  2.6 1.4 0  2.8 1.4 0  3 1.4 0  3.2 1.4 0  3.4 1.4 0  3.6 1.4 0  3.8 1.4 0  4 1.4 0  4.2 1.4 0  4.4 1.4 0  4.6 1.4 0  4.8 1.4 0  5 1.4 0  5.2 1.4 0  5.4 1.4 0  5.6 1.4 0  5.8 1.4 0  6 1.4 0  6.2 1.4 0  6.4 1.4 0  6.6 1.4 0  6.8 1.4 0  7 1.4 0  7.2 1.4 0  7.4 1.4 0  7.6 1.4 0  7.8 1.4 0  8 1.4 0  8.199999999999999 1.4 0  8.4 1.4 0  8.6 1.4 0  8.800000000000001 1.4 0  9 1.4 0  9.199999999999999 1.4 0  9.4 1.4 0  9.6 1.4 0  9.800000000000001 1.4 0  10 1.4 0  0 1.6 0  0.2 1.6 0  0.4 1.6 0  0.6 1.6 0  0.8 1.6 0  1 1.6 0  1.2 1.6 0  1.4 1.6 0  1.6 1.6 0  1.8 1.6 0  2 1.6 0  2.2 1.6 0  2.4 1.6 0  2.6 1.6 0  2.8 1.6 0  3 1.6 0  3.2 1.6 0  3.4 1.6 0  3.6 1.6 0  3.8 1.6 0  4 1.6 0  4.2 1.6 0  4.4 1.6 0  4.6 1.6 0  4.8 1.6 0  5 1.6 0  5.2 1.6 0  5.4 1.6 0  5.6 1.6 0  5.8 1.6 0  6 1.6 0  6.2 1.6 0  6.4 1.6 0  6.6 1.6 0  6.8 1.6 0  7 1.6 0  7.2 1.6 0  7.4 1.6 0  7.6 1.6 0  7.8 1.6 0  8 1.6 0  8.199999999999999 1.6 0  8.4 1.6 0  8.6 1.6 0  8.800000000000001 1.6 0  9 1.6 0  9.199999999999999 1.6 0  9.4 1.6 0  9.6 1.6 0  9.800000000000001 1.6 0  10 1.6 0  0 1.8 0  0.2 1.8 0  0.4 1.8 0  0.6 1.8 0  0.8 1.8 0  1 1.8 0  1.2 1.8 0  1.4 1.8 0  1.6 1.8 0  1.8 1.8 0  2 1.8 0  2.2 1.8 0  2.4 1.8 0  2.6 1.8 0  2.8 1.8 0  3 1.8 0  3.2 1.8 0  3.4 1.8 0  3.6 1.8 0  3.8 1.8 0  4 1.8 0  4.2 1.8 0  4.4 1.8 0  4.6 1.8 0  4.8 1.8 0  5 1.8 0  5.2 1.8 0  5.4 1.8 0  5.6 1.8 0  5.8 1.8 0  6 1.8 0  6.2 1.8 0  6.4 1.8 0  6.6 1.8 0  6.8 1.8 0  7 1.8 0  7.2 1.8 0  7.4 1.8 0  7.6 1.8 0  7.8 1.8 0  8 1.8 0  8.199999999999999 1.8 0  8.4 1.8 0  8.6 1.8 0  8.800000000000001 1.8 0  9 1.8 0  9.199999999999999 1.8 0  9.4 1.8 0  9.6 1.8 0  9.800000000000001 1.8 0  10 1.8 0  0 2 0  0.2 2 0  0.4 2 0  0.6 2 0  0.8 2 0  1 2 0  1.2 2 0  1.4 2 0  1.6 2 0  1.8 2 0  2 2 0  2.2 2 0  2.4 2 0  2.6 2 0  2.8 2 0  3 2 0  3.2 2 0  3.4 2 0  3.6 2 0  3.8 2 0  4 2 0  4.2 2 0  4.4 2 0  4.6 2 0  4.8 2 0  5 2 0  5.2 2 0  5.4 2 0  5.6 2 0  5.8 2 0  6 2 0  6.2 2 0  6.4 2 0  6.6 2 0  6.8 2 0  7 2 0  7.2 2 0  7.4 2 0  7.6 2 0  7.8 2 0  8 2 0  8.199999999999999 2 0  8.4 2 0  8.6 2 0  8.800000000000001 2 0  9 2 0  9.199999999999999 2 0  9.4 2 0  9.6 2 0  9.800000000000001 2 0  10 2 0  0 2.2 0  0.2 2.2 0  0.4 2.2 0  0.6 2.2 0  0.8 2.2 0  1 2.2 0  1.2 2.2 0  1.4 2.2 0  1.6 2.2 0  1.8 2.2 0  2 2.2 0  2.2 2.2 0  2.4 2.2 0  2.6 2.2 0  2.8 2.2 0  3 2.2 0  3.2 2.2 0  3.4 2.2 0  3.6 2.2 0  3.8 2.2 0  4 2.2 0  4.2 2.2 0  4.4 2.2 0  4.6 2.2 0  4.8 2.2 0  5 2.2 0  5.2 2.2 0  5.4 2.2 0  5.6 2.2 0  5.8 2.2 0  6 2.2 0  6.2 2.2 0  6.4 2.2 0  6.6 2.2 0  6.8 2.2 0  7 2.2 0  7.2 2.2 0  7.4 2.2 0  7.6 2.2 0  7.8 2.2 0  8 2.2 0  8.199999999999999 2.2 0  8.4 2.2 0  8.6 2.2 0  8.800000000000001 2.2 0  9 2.2 0  9.199999999999999 2.2 0  9.4 2.2 0  9.6 2.2 0  9.800000000000001 2.2 0  10 2.2 0  0 2.4 0  0.2 2.4 0  0.4 2.4 0  0.6 2.4 0  0.8 2.4 0  1 2.4 0  1.2 2.4 0  1.4 2.4 0  1.6 2.4 0  1.8 2.4 0  2 2.4 0  2.2 2.4 0  2.4 2.4 0  2.6 2.4 0  2.8 2.4 0  3 2.4 0  3.2 2.4 0  3.4 2.4 0  3.6 2.4 0  3.8 2.4 0  4 2.4 0  4.2 2.4 0  4.4 2.4 0  4.6 2.4 0  4.8 2.4 0  5 2.4 0  5.2 2.4 0  5.4 2.4 0  5.6 2.4 0  5.8 2.4 0  6 2.4 0  6.2 2.4 0  6.4 2.4 0  6.6 2.4 0  6.8 2.4 0  7 2.4 0  7.2 2.4 0  7.4 2.4 0  7.6 2.4 0  7.8 2.4 0  8 2.4 0  8.199999999999999 2.4 0  8.4 2.4 0  8.6 2.4 0  8.800000000000001 2.4 0  9 2.4 0  9.199999999999999 2.4 0  9.4 2.4 0  9.6 2.4 0  9.800000000000001 2.4 0  10 2.4 0  0 2.6 0  0.2 2.6 0  0.4 2.6 0  0.6 2.6 0  0.8 2.6 0  1 2.6 0  1.2 2.6 0  1.4 2.6 0  1.6 2.6 0  1.8 2.6 0  2 2.6 0  2.2 2.6 0  2.4 2.6 0  2.6 2.6 0  2.8 2.6 0  3 2.6 0  3.2 2.6 0  3.4 2.6 0  3.6 2.6 0  3.8 2.6 0  4 2.6 0  4.2 2.6 0  4.4 2.6 0  4.6 2.6 0  4.8 2.6 0  5 2.6 0  5.2 2.6 0  5.4 2.6 0  5.6 2.6 0  5.8 2.6 0  6 2.6 0  6.2 2.6 0  6.4 2.6 0  6.6 2.6 0  6.8 2.6 0  7 2.6 0  7.2 2.6 0  7.4 2.6 0  7.6 2.6 0  7.8 2.6 0  8 2.6 0  8.199999999999999 2.6 0  8.4 2.6 0  8.6 2.6 0  8.800000000000001 2.6 0  9 2.6 0  9.199999999999999 2.6 0  9.4 2.6 0  9.6 2.6 0  9.800000000000001 2.6 0  10 2.6 0  0 2.8 0  0.2 2.8 0  0.4 2.8 0  0.6 2.8 0  0.8 2.8 0  1 2.8 0  1.2 2.8 0  1.4 2.8 0  1.6 2.8 0  1.8 2.8 0  2 2.8 0  2.2 2.8 0  2.4 2.8 0  2.6 2.8 0  2.8 2.8 0  3 2.8 0  3.2 2.8 0  3.4 2.8 0  3.6 2.8 0  3.8 2.8 0  4 2.8 0  4.2 2.8 0  4.4 2.8 0  4.6 2.8 0  4.8 2.8 0  5 2.8 0  5.2 2.8 0  5.4 2.8 0  5.6 2.8 0  5.8 2.8 0  6 2.8 0  6.2 2.8 0  6.4 2.8 0  6.6 2.8 0  6.8 2.8 0  7 2.8 0  7.2 2.8 0  7.4 2.8 0  7.6 2.8 0  7.8 2.8 0  8 2.8 0  8.199999999999999 2.8 0  8.4 2.8 0  8.6 2.8 0  8.800000000000001 2.8 0  9 2.8 0  9.199999999999999 2.8 0  9.4 2.8 0  9.6 2.8 0  9.800000000000001 2.8 0  10 2.8 0  0 3 0  0.2 3 0  0.4 3 0  0.6 3 0  0.8 3 0  1 3 0  1.2 3 0  1.4 3 0  1.6 3 0  1.8 3 0  2 3 0  2.2 3 0  2.4 3 0  2.6 3 0  2.8 3 0  3 3 0  3.2 3 0  3.4 3 0  3.6 3 0  3.8 3 0  4 3 0  4.2 3 0  4.4 3 0  4.6 3 0  4.8 3 0  5 3 0  5.2 3 0  5.4 3 0  5.6 3 0  5.8 3 0  6 3 0  6.2 3 0  6.4 3 0  6.6 3 0  6.8 3 0  7 3 0  7.2 3 0  7.4 3 0  7.6 3 0  7.8 3 0  8 3 0  8.199999999999999 3 0  8.4 3 0  8.6 3 0  8.800000000000001 3 0  9 3 0  9.199999999999999 3 0  9.4 3 0  9.6 3 0  9.800000000000001 3 0  10 3 0  0 3.2 0  0.2 3.2 0  0.4 3.2 0  0.6 3.2 0  0.8 3.2 0  1 3.2 0  1.2 3.2 0  1.4 3.2 0  1.6 3.2 0  1.8 3.2 0  2 3.2 0  2.2 3.2 0  2.4 3.2 0  2.6 3.2 0  2.8 3.2 0  3 3.2 0  3.2 3.2 0  3.4 3.2 0  3.6 3.2 0  3.8 3.2 0  4 3.2 0  4.2 3.2 0  4.4 3.2 0  4.6 3.2 0  4.8 3.2 0  5 3.2 0  5.2 3.2 0  5.4 3.2 0  5.6 3.2 0  5.8 3.2 0  6 3.2 0  6.2 3.2 0  6.4 3.2 0  6.6 3.2 0  6.8 3.2 0  7 3.2 0  7.2 3.2 0  7.4 3.2 0  7.6 3.2 0  7.8 3.2 0  8 3.2 0  8.199999999999999 3.2 0  8.4 3.2 0  8.6 3.2 0  8.800000000000001 3.2 0  9 3.2 0  9.199999999999999 3.2 0  9.4 3.2 0  9.6 3.2 0  9.800000000000001 3.2 0  10 3.2 0  0 3.4 0  0.2 3.4 0  0.4 3.4 0  0.6 3.4 0  0.8 3.4 0  1 
[...]
<PointData  Scalars="f_5"> 
<DataArray  type="Float64"  Name="f_5"  format="ascii">3.3901310735505702e-02  2.6891414594436580e-01  3.9782706374264942e-01  4.8392396970037582e-01  5.4644006973184545e-01  5.9356861394866511e-01  6.3015401815896155e-01  6.5917866798206903e-01  6.8259997731314359e-01  7.0174253963275424e-01  7.1752648703329991e-01  7.3060750024601206e-01  7.4146670193465636e-01  7.5047014467866413e-01  7.5790864766432797e-01  7.6402427666800610e-01  7.6902737979010571e-01  7.7310677411936213e-01  7.7643493042918688e-01  7.7916955104609109e-01  7.8145262193359100e-01  7.8340776504478660e-01  7.8513651662478567e-01  7.8671406699790492e-01  7.8818507343128741e-01  7.8956035634503619e-01  7.9081541341330452e-01  7.9189148823519817e-01  7.9269934121612595e-01  7.9312512623617681e-01  7.9303725649499790e-01  7.9229305576065856e-01  7.9074423959490425e-01  7.8824059453687145e-01  7.8463142049020507e-01  7.7976431956707803e-01  7.7348079314437967e-01  7.6560788977452388e-01  7.5594482209429326e-01  7.4424297007255580e-01  7.3017686701904871e-01  7.1330236627547638e-01  6.9299572777637308e-01  6.6836284091405274e-01  6.3809879605507014e-01  6.0025946872099201e-01  5.5186954041754266e-01  4.8808575621399636e-01  4.0070997555475468e-01  2.7049294230872339e-01  3.4188464567237647e-02  1.5820703601486946e-02  1.6395187090275623e-01  2.6819141403760915e-01  3.4763755501949473e-01  4.0583488486753688e-01  4.5053553015973102e-01  4.8540950477207256e-01  5.1316214634803059e-01  5.3558248918265239e-01  5.5390784345871602e-01  5.6901108283640223e-01  5.8152103163397761e-01  5.9190315017613992e-01  6.0051393470687309e-01  6.0763785138989335e-01  6.1351212358439122e-01  6.1834272172028792e-01  6.2231379391230646e-01  6.2559216476340795e-01  6.2832822234466379e-01  6.3065436648819084e-01  6.3268208998205078e-01  6.3449862781947186e-01  6.3616391722311871e-01  6.3770840416160690e-01  6.3913206580528059e-01  6.4040488956402786e-01  6.4146888895397403e-01  6.4224150210391195e-01  6.4261997467969045e-01  6.4248618868620067e-01  6.4171139157444801e-01  6.4016032278555834e-01  6.3769423272140302e-01  6.3417222562671260e-01  6.2945027564315370e-01  6.2337719257376523e-01  6.1578672324868311e-01  6.0648479100180974e-01  5.9523049904169267e-01  5.8170882858220607e-01  5.6549176759259179e-01  5.4598256312826177e-01  5.2233423297491044e-01  4.9332883962628421e-01  4.5719021642982222e-01  4.1121959638072203e-01  3.5174780160110769e-01  2.7101810563748197e-01  1.6547129847578140e-01  1.6017498902579707e-02  7.7710975698182276e-03  1.0516989964291835e-01  1.8337354882503440e-01  2.4701494435650667e-01  2.9681076580060461e-01  3.3591220979147363e-01  3.6688188417679951e-01  3.9166265169032183e-01  4.1167754563689679e-01  4.2795914686087899e-01  4.4126005628134923e-01  4.5213670409479689e-01  4.6101045988355382e-01  4.6821158070129332e-01  4.7401033205967841e-01  4.7863840848585759e-01  4.8230286331003397e-01  4.8519413602641781e-01  4.8748940391150591e-01  4.8935231952190245e-01  4.9093015414074487e-01  4.9234937166791148e-01  4.9371063900460477e-01  4.9508419759722033e-01  4.9650637465875824e-01  4.9797782025621168e-01  4.9946382471458806e-01  5.0089679020743849e-01  5.0218061410281056e-01  5.0319645426922543e-01  5.0380916694282241e-01  5.0387365979628673e-01  5.0324044091978282e-01  5.0175970606806364e-01  4.9928336088582470e-01  4.9566441846721160e-01  4.9075323706239643e-01  4.8439003652762086e-01  4.7639300683082569e-01  4.6654104560542364e-01  4.5454968486492309e-01  4.4003804357506737e-01  4.2248364624290324e-01  4.0116068523777931e-01  3.7505607357876763e-01  3.4275920256056547e-01  3.0233301554554132e-01  2.5121461706383952e-01  1.8624897900763929e-01  1.0669957014518842e-01  7.9742169370158218e-03  5.0994472937352002e-03  6.9385515129478964e-02  1.2480849272606361e-01  1.7316766639256592e-01  2.1272321562336344e-01  2.4476525693167148e-01  2.7054430413101793e-01  2.9128476320158431e-01  3.0798383079386787e-01  3.2142054657288122e-01  3.3219328050560915e-01  3.4076310611160482e-01  3.4749265802246276e-01  3.5267747806828359e-01  3.5656985765751692e-01  3.5939594201131264e-01  3.6136694633120364e-01  3.6268524515916029e-01  3.6354603008530173e-01  3.6413525420345005e-01  3.6462469338173015e-01  3.6516511372365801e-01  3.6587867973063615e-01  3.6685180530581052e-01  3.6812959222579383e-01  3.6971279464499396e-01  3.7155789629043201e-01  3.7358042337279945e-01  3.7566111478746628e-01  3.7765413654660906e-01  3.7939625500983298e-01  3.8071581299824037e-01  3.8144045549098066e-01  3.8140275827717590e-01  3.8044315149246521e-01  3.7840974327907939e-01  3.7515479522813944e-01  3.7052765202357341e-01  3.6436386850178892e-01  3.5647011318618349e-01  3.4660419173773560e-01  3.3444931292831526e-01  3.1958171609930686e-01  3.0143148959618177e-01  2.7923940165228683e-01  2.5201998224775768e-01  2.1855323423230757e-01  1.7758676929638567e-01  1.2782422359889783e-01  7.0986676156434364e-02  5.3107830343647926e-03  2.9809927623150696e-03  4.5447759190286492e-02  8.3520181413596919e-02  1.1840723195177637e-01  1.4810509118321855e-01  1.7278952979710926e-01  1.9291688234626467e-01  2.0913164102764778e-01  2.2205093327562689e-01  2.3220743730289911e-01  2.4004037683785981e-01  2.4590847441083888e-01  2.5010981176445340e-01  2.5290161060569233e-01  2.5451708681060919e-01  2.5517827628381679e-01  2.5510445690047034e-01  2.5451609384375773e-01  2.5363442265595038e-01  2.5267700357631689e-01  2.5184988299783140e-01  2.5133736510526239e-01  2.5129075927635902e-01  2.5181772575209926e-01  2.5297389007794763e-01  2.5475816436792531e-01  2.5711269284552429e-01  2.5992760535578563e-01  2.6304996611665182e-01  2.6629563072974394e-01  2.6946232663254954e-01  2.7234221707678352e-01  2.7473245753576198e-01  2.7644269112275383e-01  2.7729891698799525e-01  2.7714358542750672e-01  2.7583205450878900e-01  2.7322566489914168e-01  2.6918167570907175e-01  2.6354021495158242e-01  2.5610833456788828e-01  2.4664139095712953e-01  2.3482260369691280e-01  2.2024335884829008e-01  2.0239097945779225e-01  1.8065879144619984e-01  1.5440438771329834e-01  1.2316663087773669e-01  8.6759766338980485e-02  4.7166121399314663e-02  3.2043624481047357e-03  1.5377106722509650e-03  2.8489868164088106e-02  5.3415758523593218e-02  7.7309681997357590e-02  9.8299648206104900e-02  1.1609582933071022e-01  1.3069375860002722e-01  1.4234304920788027e-01  1.5136666281791111e-01  1.5808851857104297e-01  1.6280373491837327e-01  1.6577376189883009e-01  1.6723336769568140e-01  1.6740188707402395e-01  1.6649468905567419e-01  1.6473264587077696e-01  1.6234829874382914e-01  1.5958788901306253e-01  1.5670876194739575e-01  1.5397203862002284e-01  1.5163097233840922e-01  1.4991605231880800e-01  1.4901859194500344e-01  1.4907507531655814e-01  1.5015474185354849e-01  1.5225261650375757e-01  1.5528941180254702e-01  1.5911856689987233e-01  1.6353941843485267e-01  1.6831444565552273e-01  1.7318796075863810e-01  1.7790362861350095e-01  1.8221871662867214e-01  1.8591378235722714e-01  1.8879735344238080e-01  1.9070584217754979e-01  1.9149936320632507e-01  1.9105428537347088e-01  1.8925332000254680e-01  1.8597384689440791e-01  1.8107515837828084e-01  1.7438555989504637e-01  1.6569109063888335e-01  1.5472945561538992e-01  1.4119637303147672e-01  1.2477706819883858e-01  1.0522038154501499e-01  8.2521521657316091e-02  5.6954560999355704e-02  3.0365841584623576e-02  1.7774010658789213e-03  4.5548838416883475e-04  1.6057707353146964e-02  3.0993531462255239e-02  4.6098838919213847e-02  5.9752081523110116e-02  7.1464114099360682e-02  8.0985527734443105e-02  8.8314542813384356e-02  9.3563634109331953e-02  9.6893335452094331e-02  9.8477766212143256e-02  9.8492087093550673e-02  9.7112640961391966e-02  9.4523266588648902e-02  9.0923655380092588e-02  8.6537023489271822e-02  8.1615135513305570e-02  7.6439144490484875e-02  7.1315075978533329e-02  6.6563287582909206e-02  6.2501999406024661e-02  5.9426019251877980e-02  5.7582939962190396e-02  5.7150088476586279e-02  5.8216007538363874e-02  6.0769955054534502e-02  6.4701719179242473e-02  6.9812175596382128e-02  7.5832937658178223e-02  8.2451760089260695e-02  8.9339519461439074e-02  9.6174770687826650e-02  1.0266288707846280e-01  1.0854822280844004e-01  1.1361914237469342e-01  1.1770681524467065e-01  1.2067924320827467e-01  1.2243211749984738e-01  1.2287794759939728e-01  1.2193466141488711e-01  1.1951474803281363e-01  1.1551619896592148e-01  1.0981721671748168e-01  1.0227813442431215e-01  9.2756511810026435e-02  8.1144251316960583e-02  6.7436199844648437e-02  5.1866189442592386e-02  3.4899784848103313e-02  1.8127238363237628e-02  7.1496316973832213e-04  -3.7195885533049120e-04  6.7467710498050459e-03  1.4039118516165067e-02  2.2188607977407137e-02  2.9809377839472424e-02  3.6329907673796034e-02  4.1372052081087761e-02  4.4777311687637711e-02  4.6512114021263706e-02  4.6613444458729780e-02  4.5157048308600102e-02  4.2243479558780023e-02  3.7995983238649972e-02  3.2565156983656161e-02  2.6136661463928457e-02  1.8939084469726704e-02  1.1249483624156825e-02  3.3943333110278036e-03  -4.2561603671080256e-03  -1.1301880020438011e-02  -1.7335234744001185e-02  -2.1971138223900850e-02  -2.4881535828195137e-02  -2.5829667711374311e-02  -2.4698160266018676e-02  -2.1505268352149633e-02  -1.6405403584404104e-02  -9.6731689256030502e-03  -1.6736148476749373e-03  7.1757597915904411e-03  1.6444476621623041e-02  2.5723767444328794e-02  3.4652166476678126e-02  4.2930208241164260e-02  5.0324733093992172e-02  5.6664854619804438e-02  6.1832308971749864e-02  6.5748849429874925e-02  6.8362881159534081e-02  6.9636973696419857e-02  6.9537503681430329e-02  6.8027657488898566e-02  6.5065495395170661e-02  6.0609815682036348e-02  5.4638141614192941e-02  4.7182349457355423e-02  3.8386306562070587e-02  2.8604000605422408e-02  1.8373245206541263e-02  9.0414096025012557e-03  -8.9726376149899478e-05  -1.0167728699089339e-03  -3.1108612652115035e-04  1.1113011236850059e-03  3.7843855625021407e-03  6.5171561046821046e-03  8.7027671953887609e-03  9.8930070215674983e-03  9.8294226958170992e-03  8.3759658354728601e-03  5.4755152074166119e-03  1.1230301782990122e-03  -4.6466506170887833e-03  -1.1760186716070263e-02  -2.0100078096062571e-02  -2.9495186061965325e-02  -3.9710352976350123e-02  -5.0438074911627488e-02  -6.1295388088871111e-02  -7.1829217558197933e-02  -8.1533034726625861e-02  -8.9876422701217359e-02  -9.6346868532079050e-02  -1.0049997116305942e-01  -1.0201096658063578e-01  -1.0071816937751131e-01  -9.6648826048397654e-02  -9.0020634975443631e-02  -8.1217384453718983e-02  -7.0743220141521762e-02  -5.9164873307997828e-02  -4.7053125580109927e-02  -3.4933456708460348e-02  -2.3252126641640208e-02  -1.2359488939800994e-02  -2.5086039526592760e-03  6.1349698314609640e-03  1.3476923219147164e-02  1.9475647736243516e-02  2.4124466374686671e-02  2.7436613897091754e-02  2.9434154999720349e-02  3.0141735635405571e-02  2.9586302405633688e-02  2.7804642415747559e-02  2.4861612990625618e-02  2.0882320586559408e-02  1.6099899685017998e-02  1.0927084020125977e-02  5.9242730539003658e-03  2.2350549515729214e-03  -7.0941829130064373e-04  -1.5261956323353706e-03  -5.6829350554039957e-03  -8.7628972152932125e-03  -1.0377015947643106e-02  -1.1561057942201181e-02  -1.2939576378379832e-02  -1.5002583973811828e-02  -1.8076392822782054e-02  -2.2372671287300673e-02  -2.8023688463468373e-02  -3.5104300917059302e-02  -4.3641178254329546e-02  -5.3611688378063939e-02  -6.4935223944668510e-02  -7.7459650267904856e-02  -9.0945736489676007e-02  -1.0505301039309101e-01  -1.1933131234177072e-01  -1.3322305085406172e-01  -1.4608121242674735e-01  -1.5720687654087084e-01  -1.6590680447987105e-01  -1.7156663224146063e-01  -1.7372928829592399e-01  -1.7216349842863024e-01  -1.6690609932203526e-01  -1.5826601202163154e-01  -1.4678665983568098e-01  -1.3317443214416239e-01  -1.1820933217601427e-01  -1.0265697697341872e-01  -8.7198036283671509e-02  -7.2384063121298262e-02  -5.8620755379015753e-02  -4.6173710062412492e-02  -3.5188859408403425e-02  -2.5719709378676400e-02  -1.7755151306786156e-02  -1.1243831532831535e-02  -6.1130212851941155e-03  -2.2812263962967315e-03  3.3567529674324333e-04  1.8250953200636343e-03  2.2861185211574681e-03  1.8473299616236960e-03  6.9594851186889379e-04  -8.8146736438459523e-04  -2.4449523036853649e-03  -3.4320605350072080e-03  -2.8652920639584620e-03  -1.1920571523029316e-03  -1.9328316166409450e-03  -9.7537574174078219e-03  -1.6258381089866866e-02  -2.1196990354477887e-02  -2.5482505521258025e-02  -2.9750977801028956e-02  -3.4520947217716980e-02  -4.0169142637793490e-02  -4.6967680184677181e-02  -5.5113681154792551e-02  -6.4747366512244803e-02  -7.5958156287567302e-02  -8.8780203412165581e-02  -1.0317924129898819e-01  -1.1903278612015880e-01  -1.3610631993798680e-01  -1.5402929716614719e-01  -1.7227657439544025e-01  -1.9016273392545585e-01  -2.0685790472675400e-01  -2.2143284660034071e-01  -2.3293697600424065e-01  -2.4050511427718216e-01  -2.4347818840073923e-01  -2.4151337484109592e-01  -2.3465525202165685e-01  -2.2334544195575781e-01  -2.0836387984199015e-01  -1.9071474609812683e-01  -1.7148570390590376e-01  -1.5171380812006580e-01  -1.3228445040078043e-01  -1.1387574541769262e-01  -9.6946633225006060e-02  -8.1757601681716682e-02  -6.8409720591366199e-02  -5.6889235300423127e-02  -4.7108851883822772e-02  -3.8940965959163062e-02  -3.2241256298231491e-02  -2.6862920707915478e-02  -2.2662504210575946e-02  -1.9498075367083288e-02  -1.7219791793363325e-02  -1.5652042965776412e-02  -1.4566152534468241e-02  -1.3644112351182734e-02  -1.2435712811015779e-02  -1.0385808646564418e-02  -6.6526048019325120e-03  -1.5710488076360429e-03  -2.2602231702516431e-03  -1.2792401131647162e-02  -2.1853217078174038e-02  -2.9326598314126758e-02  -3.6027664339126360e-02  -4.2601363994597297e-02  -4.9588237936325406e-02  -5.7406063934101324e-02  -6.6379704301127176e-02  -7.6767240272004225e-02  -8.8775419121254223e-02  -1.0256313027726748e-01  -1.1823345598299628e-01  -1.3581516967146481e-01  -1.5523477771123384e-01  -1.7628107283261116e-01  -1.9856607625238742e-01  -2.2148927496913384e-01  -2.4421583317589918e-01  -2.6568283376907531e-01  -2.8464848904899021e-01  -2.9979488925182635e-01  -3.0988306322214415e-01  -3.1394055518424258e-01  -3.1144193210218385e-01  -3.0243168332002152e-01  -2.8754658275476169e-01  -2.6792253082577505e-01  -2.4500868307058171e-01  -2.2034120470984053e-01  -1.9533621888348915e-01  -1.7114559626438483e-01  -1.4859147268920514e-01  -1.2817011188755825e-01  -1.1010169106100028e-01  -9.4400522977210757e-02  -8.0945848465556830e-02  -6.9541472781937300e-02  -5.9959646544143430e-02  -5.1969271517899256e-02  -4.5350758736314702e-02  -3.9900323954686852e-02  -3.5425890719154522e-02  -3.1735658253761595e-02  -2.8619256544843305e-02  -2.5820976167724153e-02  -2.3005950833784206e-02  -1.9724279626209301e-02  -1.5433867608562525e-02  -9.4055474018127794e-03  -1.8708284528936008e-03  -2.5259379445150098e-03  -1.4990949921007947e-02  -2.5892223659041556e-02  -3.5241679381635936e-02  -4.3775531655846127e-02  -5.2145221952403044e-02  -6.0909158158373986e-02  -7.0520754539087141e-02  -8.1354201890336666e-02  -9.3728867400349511e-02  -1.0792348180367566e-01  -1.2417804859030049e-01  -1.4268306335390435e-01  -1.6355562254303790e-01  -1.8680201385548467e-01  -2.1226728714607276e-01  -2.3957479890614009e-01  -2.6806330564352066e-01  -2.9673584639751599e-01  -3.2424221332410347e-01  -3.4892208754400589e-01  -3.6893353478456903e-01  -3.8247553300852183e-01  -3.8808140741961283e-01  -3.8492018340964645e-01  -3.7301470530165803e-01  -3.5329232162694663e-01  -3.2743459835556538e-01  -2.9756687573188889e-01  -2.6588651070238373e-01  -2.3433909970463995e-01  -2.0441530297362973e-01  -1.7708472171402920e-01  -1.5283835707513327e-01  -1.3179211272232602e-01  -1.1380735402035944e-01  -9.8599281403358219e-02  -8.5819578906326077e-02  -7.5111186817782422e-02  -6.6139137913949042e-02  -5.8603381270868185e-02  -5.2239064839634780e-02  -4.6808187172276174e-02  -4.2084688553817168e-02  -3.7833451297000741e-02  -3.3782935626558347e-02  -2.9592487046845303e-02  -2.4820693692234962e-02  -1.8943748797717892e-02  -1.1327913779673607e-02  -2.1099401099982764e-03  -2.7434129063699294e-03  -1.6489734615285089e-02  -2.8628965693280588e-02  -3.9295167187208081e-02  -4.9159603445533426e-02  -5.8876463702769381e-02  -6.9017945113301338e-02  -8.0069032592097314e-02  -9.2451690984861598e-02  -1.0654904733360396e-01  -1.2271989481125396e-01  -1.4130071979095032e-01  -1.6259375334986362e-01  -1.8683894441463819e-01  -2.1416715347676699e-01  -2.4453229187595840e-01  -2.7762271980037351e-01  -3.1275824667312851e-01  -3.4878957609667710e-01  -3.8403158771864232e-01  -4.1627658041102711e-01  -4.4293922608856628e-01  -4.6136755101081856e-01  -4.6930261925236499e-01  -4.6539043822484644e-01  -4.4957998740313293e-01  -4.2323732483743104e-01  -3.8889850182814051e-01  -3.4973615560755844e-01  -3.0893356220881063e-01  -2.6917271218812167e-01  -2.3235667559546824e-01  -1.9957091947507763e-01  -1.7121006332529431e-01  -1.4717668611795470e-01  -1.2707955467454829e-01  -1.1039223733331192e-01  -9.6561008203928128e-02  -8.5067237174426893e-02  -7.5455708168746055e-02  -6.7340446637190396e-02  -6.0397060807559542e-02  -5.4347377759670822e-02  -4.8939255346056081e-02  -4.3922277261851599e-02  -3.9018996884229953e-02  -3.3892647877630418e-02  -2.8117997395697363e-02  -2.1195328514186842e-02  -1.2573500736775742e-02  -2.3028851318527550e-03  -2.9230644199877030e-03  -1.7394083924693139e-02  -3.0254821578869971e-02  -4.1754853576969571e-02  -5.2510415598302648e-02  -6.3172671682171611e-02  -7.4322302536586810e-02  -8.6471412529852965e-02  -1.0008809402744545e-01  -1.1562178393489106e-01  -1.3351991007486963e-01  -1.5423245650545703e-01  -1.7820181650006867e-01  -2.0583381752444921e-01  -2.3744404695860585e-01  -2.7317266872151019e-01  -3.1286241980456986e-01  -3.5590086223591549e-01  -4.0104235333866911e-01  -4.4624984615990215e-01  -4.8862911433668177e-01  -5.2455509345404194e-01  -5.5008345307104456e-01  -5.6166524577471166e-01  -5.5702961721406619e-01  -5.3593128871907680e-01  -5.0040890771088298e-01  -4.5437027261920554e-01  -4.0264530836743262e-01  -3.4990327949320588e-01  -2.9983735951214346e-01  -2.5481071182143122e-01  -2.1591704033300449e-01  -1.8327957297458095e-01  -1.5641169730761145e-01  -1.3452768721350392e-01  -1.1676113368938582e-01  -1.0229348092796338e-01  -9.0414179147918564e-02  -8.0536586709181637e-02  -7.2188999934712450e-02  -6.4993717336660151e-02  -5.8641386335528775e-02  -5.2863725315486429e-02  -4.7405027694848556e-02  -4.1991657459099982e-02  -3.6300003729676872e-02  -2.9928870684808328e-02  -2.2409115779730700e-02  -1.3262461381574211e-02  -2.4612575281770617e-03  -3.0729348498312967e-03  -1.7786034309696150e-02  -3.0919932292919519e-02  -4.2831576028366070e-02  -5.4088675649753400e-02  -6.5331340738542437e-02  -7.7141531657583418e-02  -9.0052437089043105e-02  -1.0457485867575955e-01  -1.2122500778737133e-01  -1.4054533061090127e-01  -1.6311476270061070e-01  -1.8954484741384975e-01  -2.2045556727570742e-01  -2.5642122651054289e-01  -2.9787317680266034e-01  -3.4494444498218552e-01  -3.9724511437263288e-01  -4.5357300090808567e-01  -5.1160000784005288e-01  -5.6763545919163871e-01  -6.1664202257159095e-01  -6.5271968629137411e-01  -6.7019020012532460e-01  -6.6513515908324594e-01  -6.3684154047569852e-01  -5.8839619968155277e-01  -5.2597414071656001e-01  -4.5709169014342232e-01  -3.8867693209911419e-01  -3.2577132114425755e-01  -2.7115256361800610e-01  -2.2566319636799637e-01  -1.8884324031239516e-01  -1.5954999052369645e-01  -1.3641571591971213e-01  -1.1812200813694121e-01  -1.0352986899603778e-01  -9.1717254758621206e-02  -8.1966603526430593e-02  -7.3730496605161885e-02  -6.6591284422216263e-02  -6.0221996288211753e-02  -5.4350656628840331e-02  -4.8727296705568079e-02  -4.3091925408189583e-02  -3.7143121885935833e-02  -3.0511659306676667e-02  -2.2765745410879