<?xml version="1.0"?>
<VTKFile type="UnstructuredGrid"  version="0.1"  >
<UnstructuredGrid>
<Piece  NumberOfPoints="5101" NumberOfCells="10000">
<Points>
<DataArray  type="Float64"  NumberOfComponents="3"  format="ascii">0 0 0  0.2 0 0  0.4 0 0  0.6 0 0  0.8 0 0  1 0 0  1.2 0 0  1.4 0 0  1.6 0 0  1.8 0 0  2 0 0  2.2 0 0  2.4 0 0  2.6 0 0  2.8 0 0  3 0 0  3.2 0 0  3.4 0 0  3.6 0 0  3.8 0 0  4 0 0  4.2 0 0  4.4 0 0  4.6 0 0  4.8 0 0  5 0 0  5.2 0 0  5.4 0 0  5.6 0 0  5.8 0 0  6 0 0  6.2 0 0  6.4 0 0  6.6 0 0  6.8 0 0  7 0 0  7.2 0 0  7.4 0 0  7.6 0 0  7.8 0 0  8 0 0  8.199999999999999 0 0  8.4 0 0  8.6 0 0  8.800000000000001 0 0  9 0 0  9.199999999999999 0 0  9.4 0 0  9.6 0 0  9.800000000000001 0 0  10 0 0  0 0.2 0  0.2 0.2 0  0.4 0.2 0  0.6 0.2 0  0.8 0.2 0  1 0.2 0  1.2 0.2 0  1.4 0.2 0  1.6 0.2 0  1.8 0.2 0  2 0.2 0  2.2 0.2 0  2.4 0.2 0  2.6 0.2 0  2.8 0.2 0  3 0.2 0  3.2 0.2 0  3.4 0.2 0  3.6 0.2 0  3.8 0.2 0  4 0.2 0  4.2 0.2 0  4.4 0.2 0  4.6 0.2 0  4.8 0.2 0  5 0.2 0  5.2 0.2 0  5.4 0.2 0  5.6 0.2 0  5.8 0.2 0  6 0.2 0  6.2 0.2 0  6.4 0.2 0  6.6 0.2 0  6.8 0.2 0  7 0.2 0  7.2 0.2 0  7.4 0.2 0  7.6 0.2 0  7.8 0.2 0  8 0.2 0  8.199999999999999 0.2 0  8.4 0.2 0  8.6 0.2 0  8.800000000000001 0.2 0  9 0.2 0  9.199999999999999 0.2 0  9.4 0.2 0  9.6 0.2 0  9.800000000000001 0.2 0  10 0.2 0  0 0.4 0  0.2 0.4 0  0.4 0.4 0  0.6 0.4 0  0.8 0.4 0  1 0.4 0  1.2 0.4 0  1.4 0.4 0  1.6 0.4 0  1.8 0.4 0  2 0.4 0  2.2 0.4 0  2.4 0.4 0  2.6 0.4 0  2.8 0.4 0  3 0.4 0  3.2 0.4 0  3.4 0.4 0  3.6 0.4 0  3.8 0.4 0  4 0.4 0  4.2 0.4 0  4.4 0.4 0  4.6 0.4 0  4.8 0.4 0  5 0.4 0  5.2 0.4 0  5.4 0.4 0  5.6 0.4 0  5.8 0.4 0  6 0.4 0  6.2 0.4 0  6.4 0.4 0  6.6 0.4 0  6.8 0.4 0  7 0.4 0  7.2 0.4 0  7.4 0.4 0  7.6 0.4 0  7.8 0.4 0  8 0.4 0  8.199999999999999 0.4 0  8.4 0.4 0  8.6 0.4 0  8.800000000000001 0.4 0  9 0.4 0  9.199999999999999 0.4 0  9.4 0.4 0  9.6 0.4 0  9.800000000000001 0.4 0  10 0.4 0  0 0.6 0  0.2 0.6 0  0.4 0.6 0  0.6 0.6 0  0.8 0.6 0  1 0.6 0  1.2 0.6 0  1.4 0.6 0  1.6 0.6 0  1.8 0.6 0  2 0.6 0  2.2 0.6 0  2.4 0.6 0  2.6 0.6 0  2.8 0.6 0  3 0.6 0  3.2 0.6 0  3.4 0.6 0  3.6 0.6 0  3.8 0.6 0  4 0.6 0  4.2 0.6 0  4.4 0.6 0  4.6 0.6 0  4.8 0.6 0  5 0.6 0  5.2 0.6 0  5.4 0.6 0  5.6 0.6 0  5.8 0.6 0  6 0.6 0  6.2 0.6 0  6.4 0.6 0  6.6 0.6 0  6.8 0.6 0  7 0.6 0  7.2 0.6 0  7.4 0.6 0  7.6 0.6 0  7.8 0.6 0  8 0.6 0  8.199999999999999 0.6 0  8.4 0.6 0  8.6 0.6 0  8.800000000000001 0.6 0  9 0.6 0  9.199999999999999 0.6 0  9.4 0.6 0  9.6 0.6 0  9.800000000000001 0.6 0  10 0.6 0  0 0.8 0  0.2 0.8 0  0.4 0.8 0  0.6 0.8 0  0.8 0.8 0  1 0.8 0  1.2 0.8 0  1.4 0.8 0  1.6 0.8 0  1.8 0.8 0  2 0.8 0  2.2 0.8 0  2.4 0.8 0  2.6 0.8 0  2.8 0.8 0  3 0.8 0  3.2 0.8 0  3.4 0.8 0  3.6 0.8 0  3.8 0.8 0  4 0.8 0  4.2 0.8 0  4.4 0.8 0  4.6 0.8 0  4.8 0.8 0  5 0.8 0  5.2 0.8 0  5.4 0.8 0  5.6 0.8 0  5.8 0.8 0  6 0.8 0  6.2 0.8 0  6.4 0.8 0  6.6 0.8 0  6.8 0.8 0  7 0.8 0  7.2 0.8 0  7.4 0.8 0  7.6 0.8 0  7.8 0.8 0  8 0.8 0  8.199999999999999 0.8 0  8.4 0.8 0  8.6 0.8 0  8.800000000000001 0.8 0  9 0.8 0  9.199999999999999 0.8 0  9.4 0.8 0  9.6 0.8 0  9.800000000000001 0.8 0  10 0.8 0  0 1 0  0.2 1 0  0.4 1 0  0.6 1 0  0.8 1 0  1 1 0  1.2 1 0  1.4 1 0  1.6 1 0  1.8 1 0  2 1 0  2.2 1 0  2.4 1 0  2.6 1 0  2.8 1 0  3 1 0  3.2 1 0  3.4 1 0  3.6 1 0  3.8 1 0  4 1 0  4.2 1 0  4.4 1 0  4.6 1 0  4.8 1 0  5 1 0  5.2 1 0  5.4 1 0  5.6 1 0  5.8 1 0  6 1 0  6.2 1 0  6.4 1 0  6.6 1 0  6.8 1 0  7 1 0  7.2 1 0  7.4 1 0  7.6 1 0  7.8 1 0  8 1 0  8.199999999999999 1 0  8.4 1 0  8.6 1 0  8.800000000000001 1 0  9 1 0  9.199999999999999 1 0  9.4 1 0  9.6 1 0  9.800000000000001 1 0  10 1 0  0 1.2 0  0.2 1.2 0  0.4 1.2 0  0.6 1.2 0  0.8 1.2 0  1 1.2 0  1.2 1.2 0  1.4 1.2 0  1.6 1.2 0  1.8 1.2 0  2 1.2 0  2.2 1.2 0  2.4 1.2 0  2.6 1.2 0  2.8 1.2 0  3 1.2 0  3.2 1.2 0  3.4 1.2 0  3.6 1.2 0  3.8 1.2 0  4 1.2 0  4.2 1.2 0  4.4 1.2 0  4.6 1.2 0  4.8 1.2 0  5 1.2 0  5.2 1.2 0  5.4 1.2 0  5.6 1.2 0  5.8 1.2 0  6 1.2 0  6.2 1.2 0  6.4 1.2 0  6.6 1.2 0  6.8 1.2 0  7 1.2 0  7.2 1.2 0  7.4 1.2 0  7.6 1.2 0  7.8 1.2 0  8 1.2 0  8.199999999999999 1.2 0  8.4 1.2 0  8.6 1.2 0  8.800000000000001 1.2 0  9 1.2 0  9.199999999999999 1.2 0  9.4 1.2 0  9.6 1.2 0  9.800000000000001 1.2 0  10 1.2 0  0 1.4 0  0.2 1.4 0  0.4 1.4 0  0.6 1.4 0  0.8 1.4 0  1 1.4 0  1.2 1.4 0  1.4 1.4 0  1.6 1.4 0  1.8 1.4 0  2 1.4 0  2.2 1.4 0  2.4 1.4 0  2.6 1.4 0  2.8 1.4 0  3 1.4 0  3.2 1.4 0  3.4 1.4 0  3.6 1.4 0  3.8 1.4 0  4 1.4 0  4.2 1.4 0  4.4 1.4 0  4.6 1.4 0  4.8 1.4 0  5 1.4 0  5.2 1.4 0  5.4 1.4 0  5.6 1.4 0  5.8 1.4 0  6 1.4 0  6.2 1.4 0  6.4 1.4 0  6.6 1.4 0  6.8 1.4 0  7 1.4 0  7.2 1.4 0  7.4 1.4 0  7.6 1.4 0  7.8 1.4 0  8 1.4 0  8.199999999999999 1.4 0  8.4 1.4 0  8.6 1.4 0  8.800000000000001 1.4 0  9 1.4 0  9.199999999999999 1.4 0  9.4 1.4 0  9.6 1.4 0  9.800000000000001 1.4 0  10 1.4 0  0 1.6 0  0.2 1.6 0  0.4 1.6 0  0.6 1.6 0  0.8 1.6 0  1 1.6 0  1.2 1.6 0  1.4 1.6 0  1.6 1.6 0  1.8 1.6 0  2 1.6 0  2.2 1.6 0  2.4 1.6 0  2.6 1.6 0  2.8 1.6 0  3 1.6 0  3.2 1.6 0  3.4 1.6 0  3.6 1.6 0  3.8 1.6 0  4 1.6 0  4.2 1.6 0  4.4 1.6 0  4.6 1.6 0  4.8 1.6 0  5 1.6 0  5.2 1.6 0  5.4 1.6 0  5.6 1.6 0  5.8 1.6 0  6 1.6 0  6.2 1.6 0  6.4 1.6 0  6.6 1.6 0  6.8 1.6 0  7 1.6 0  7.2 1.6 0  7.4 1.6 0  7.6 1.6 0  7.8 1.6 0  8 1.6 0  8.199999999999999 1.6 0  8.4 1.6 0  8.6 1.6 0  8.800000000000001 1.6 0  9 1.6 0  9.199999999999999 1.6 0  9.4 1.6 0  9.6 1.6 0  9.800000000000001 1.6 0  10 1.6 0  0 1.8 0  0.2 1.8 0  0.4 1.8 0  0.6 1.8 0  0.8 1.8 0  1 1.8 0  1.2 1.8 0  1.4 1.8 0  1.6 1.8 0  1.8 1.8 0  2 1.8 0  2.2 1.8 0  2.4 1.8 0  2.6 1.8 0  2.8 1.8 0  3 1.8 0  3.2 1.8 0  3.4 1.8 0  3.6 1.8 0  3.8 1.8 0  4 1.8 0  4.2 1.8 0  4.4 1.8 0  4.6 1.8 0  4.8 1.8 0  5 1.8 0  5.2 1.8 0  5.4 1.8 0  5.6 1.8 0  5.8 1.8 0  6 1.8 0  6.2 1.8 0  6.4 1.8 0  6.6 1.8 0  6.8 1.8 0  7 1.8 0  7.2 1.8 0  7.4 1.8 0  7.6 1.8 0  7.8 1.8 0  8 1.8 0  8.199999999999999 1.8 0  8.4 1.8 0  8.6 1.8 0  8.800000000000001 1.8 0  9 1.8 0  9.199999999999999 1.8 0  9.4 1.8 0  9.6 1.8 0  9.800000000000001 1.8 0  10 1.8 0  0 2 0  0.2 2 0  0.4 2 0  0.6 2 0  0.8 2 0  1 2 0  1.2 2 0  1.4 2 0  1.6 2 0  1.8 2 0  2 2 0  2.2 2 0  2.4 2 0  2.6 2 0  2.8 2 0  3 2 0  3.2 2 0  3.4 2 0  3.6 2 0  3.8 2 0  4 2 0  4.2 2 0  4.4 2 0  4.6 2 0  4.8 2 0  5 2 0  5.2 2 0  5.4 2 0  5.6 2 0  5.8 2 0  6 2 0  6.2 2 0  6.4 2 0  6.6 2 0  6.8 2 0  7 2 0  7.2 2 0  7.4 2 0  7.6 2 0  7.8 2 0  8 2 0  8.199999999999999 2 0  8.4 2 0  8.6 2 0  8.800000000000001 2 0  9 2 0  9.199999999999999 2 0  9.4 2 0  9.6 2 0  9.800000000000001 2 0  10 2 0  0 2.2 0  0.2 2.2 0  0.4 2.2 0  0.6 2.2 0  0.8 2.2 0  1 2.2 0  1.2 2.2 0  1.4 2.2 0  1.6 2.2 0  1.8 2.2 0  2 2.2 0  2.2 2.2 0  2.4 2.2 0  2.6 2.2 0  2.8 2.2 0  3 2.2 0  3.2 2.2 0  3.4 2.2 0  3.6 2.2 0  3.8 2.2 0  4 2.2 0  4.2 2.2 0  4.4 2.2 0  4.6 2.2 0  4.8 2.2 0  5 2.2 0  5.2 2.2 0  5.4 2.2 0  5.6 2.2 0  5.8 2.2 0  6 2.2 0  6.2 2.2 0  6.4 2.2 0  6.6 2.2 0  6.8 2.2 0  7 2.2 0  7.2 2.2 0  7.4 2.2 0  7.6 2.2 0  7.8 2.2 0  8 2.2 0  8.199999999999999 2.2 0  8.4 2.2 0  8.6 2.2 0  8.800000000000001 2.2 0  9 2.2 0  9.199999999999999 2.2 0  9.4 2.2 0  9.6 2.2 0  9.800000000000001 2.2 0  10 2.2 0  0 2.4 0  0.2 2.4 0  0.4 2.4 0  0.6 2.4 0  0.8 2.4 0  1 2.4 0  1.2 2.4 0  1.4 2.4 0  1.6 2.4 0  1.8 2.4 0  2 2.4 0  2.2 2.4 0  2.4 2.4 0  2.6 2.4 0  2.8 2.4 0  3 2.4 0  3.2 2.4 0  3.4 2.4 0  3.6 2.4 0  3.8 2.4 0  4 2.4 0  4.2 2.4 0  4.4 2.4 0  4.6 2.4 0  4.8 2.4 0  5 2.4 0  5.2 2.4 0  5.4 2.4 0  5.6 2.4 0  5.8 2.4 0  6 2.4 0  6.2 2.4 0  6.4 2.4 0  6.6 2.4 0  6.8 2.4 0  7 2.4 0  7.2 2.4 0  7.4 2.4 0  7.6 2.4 0  7.8 2.4 0  8 2.4 0  8.199999999999999 2.4 0  8.4 2.4 0  8.6 2.4 0  8.800000000000001 2.4 0  9 2.4 0  9.199999999999999 2.4 0  9.4 2.4 0  9.6 2.4 0  9.800000000000001 2.4 0  10 2.4 0  0 2.6 0  0.2 2.6 0  0.4 2.6 0  0.6 2.6 0  0.8 2.6 0  1 2.6 0  1.2 2.6 0  1.4 2.6 0  1.6 2.6 0  1.8 2.6 0  2 2.6 0  2.2 2.6 0  2.4 2.6 0  2.6 2.6 0  2.8 2.6 0  3 2.6 0  3.2 2.6 0  3.4 2.6 0  3.6 2.6 0  3.8 2.6 0  4 2.6 0  4.2 2.6 0  4.4 2.6 0  4.6 2.6 0  4.8 2.6 0  5 2.6 0  5.2 2.6 0  5.4 2.6 0  5.6 2.6 0  5.8 2.6 0  6 2.6 0  6.2 2.6 0  6.4 2.6 0  6.6 2.6 0  6.8 2.6 0  7 2.6 0  7.2 2.6 0  7.4 2.6 0  7.6 2.6 0  7.8 2.6 0  8 2.6 0  8.199999999999999 2.6 0  8.4 2.6 0  8.6 2.6 0  8.800000000000001 2.6 0  9 2.6 0  9.199999999999999 2.6 0  9.4 2.6 0  9.6 2.6 0  9.800000000000001 2.6 0  10 2.6 0  0 2.8 0  0.2 2.8 0  0.4 2.8 0  0.6 2.8 0  0.8 2.8 0  1 2.8 0  1.2 2.8 0  1.4 2.8 0  1.6 2.8 0  1.8 2.8 0  2 2.8 0  2.2 2.8 0  2.4 2.8 0  2.6 2.8 0  2.8 2.8 0  3 2.8 0  3.2 2.8 0  3.4 2.8 0  3.6 2.8 0  3.8 2.8 0  4 2.8 0  4.2 2.8 0  4.4 2.8 0  4.6 2.8 0  4.8 2.8 0  5 2.8 0  5.2 2.8 0  5.4 2.8 0  5.6 2.8 0  5.8 2.8 0  6 2.8 0  6.2 2.8 0  6.4 2.8 0  6.6 2.8 0  6.8 2.8 0  7 2.8 0  7.2 2.8 0  7.4 2.8 0  7.6 2.8 0  7.8 2.8 0  8 2.8 0  8.199999999999999 2.8 0  8.4 2.8 0  8.6 2.8 0  8.800000000000001 2.8 0  9 2.8 0  9.199999999999999 2.8 0  9.4 2.8 0  9.6 2.8 0  9.800000000000001 2.8 0  10 2.8 0  0 3 0  0.2 3 0  0.4 3 0  0.6 3 0  0.8 3 0  1 3 0  1.2 3 0  1.4 3 0  1.6 3 0  1.8 3 0  2 3 0  2.2 3 0  2.4 3 0  2.6 3 0  2.8 3 0  3 3 0  3.2 3 0  3.4 3 0  3.6 3 0  3.8 3 0  4 3 0  4.2 3 0  4.4 3 0  4.6 3 0  4.8 3 0  5 3 0  5.2 3 0  5.4 3 0  5.6 3 0  5.8 3 0  6 3 0  6.2 3 0  6.4 3 0  6.6 3 0  6.8 3 0  7 3 0  7.2 3 0  7.4 3 0  7.6 3 0  7.8 3 0  8 3 0  8.199999999999999 3 0  8.4 3 0  8.6 3 0  8.800000000000001 3 0  9 3 0  9.199999999999999 3 0  9.4 3 0  9.6 3 0  9.800000000000001 3 0  10 3 0  0 3.2 0  0.2 3.2 0  0.4 3.2 0  0.6 3.2 0  0.8 3.2 0  1 3.2 0  1.2 3.2 0  1.4 3.2 0  1.6 3.2 0  1.8 3.2 0  2 3.2 0  2.2 3.2 0  2.4 3.2 0  2.6 3.2 0  2.8 3.2 0  3 3.2 0  3.2 3.2 0  3.4 3.2 0  3.6 3.2 0  3.8 3.2 0  4 3.2 0  4.2 3.2 0  4.4 3.2 0  4.6 3.2 0  4.8 3.2 0  5 3.2 0  5.2 3.2 0  5.4 3.2 0  5.6 3.2 0  5.8 3.2 0  6 3.2 0  6.2 3.2 0  6.4 3.2 0  6.6 3.2 0  6.8 3.2 0  7 3.2 0  7.2 3.2 0  7.4 3.2 0  7.6 3.2 0  7.8 3.2 0  8 3.2 0  8.199999999999999 3.2 0  8.4 3.2 0  8.6 3.2 0  8.800000000000001 3.2 0  9 3.2 0  9.199999999999999 3.2 0  9.4 3.2 0  9.6 3.2 0  9.800000000000001 3.2 0  10 3.2 0  0 3.4 0  0.2 3.4 0  0.4 3.4 0  0.6 3.4 0  0.8 3.4 0  1 
[...]
<PointData  Scalars="f_8"> 
<DataArray  type="Float64"  Name="f_8"  format="ascii">-3.3963211845475648e-02  -1.5867339621144713e-02  -7.8213229357596541e-03  -5.1539330792055634e-03  -3.0412555624264423e-03  -1.6053451172742164e-03  -5.3204235940676069e-04  2.8490247846875953e-04  9.1751780183219273e-04  1.4127947903450856e-03  1.8028887757709003e-03  2.1106421945983229e-03  2.3526523213191386e-03  2.5411554226083756e-03  2.6852570758376707e-03  2.7917797425335714e-03  2.8658701447068758e-03  2.9114383399085589e-03  2.9314629565811807e-03  2.9281819670463607e-03  2.9031904199218043e-03  2.8574803678465890e-03  2.7914744667928079e-03  2.7051101900068806e-03  2.5980157809240637e-03  2.4697840087320299e-03  2.3203119831451792e-03  2.1501524481316817e-03  1.9608179687587656e-03  1.7549875684259311e-03  1.5365831181924174e-03  1.3107122988891423e-03  1.0835106484638462e-03  8.6194220378481984e-04  6.5362554429657333e-04  4.6674150398316017e-04  3.1006118597120560e-04  1.9311929627423787e-04  1.2655549344790459e-04  1.2266000109365969e-04  1.9619473534571565e-04  3.6562931557626663e-04  6.5505786739144417e-04  1.0973200301482803e-03  1.7395918401526540e-03  2.6536607204028831e-03  3.9451937166365761e-03  5.9275029083902921e-03  8.4774568373229813e-03  1.6421675935029675e-02  3.4379574160044356e-02  -2.6924204881406066e-01  -1.6429130000388381e-01  -1.0553623694171572e-01  -6.9798756208820048e-02  -4.5927365918627248e-02  -2.9056275707836612e-02  -1.6732643947669198e-02  -7.5535907714442711e-03  -6.5292034497508385e-04  4.5341302963465011e-03  8.3898201821851690e-03  1.1179791711988962e-02  1.3092378457672227e-02  1.4263590987883591e-02  1.4793917048805528e-02  1.4760191222895484e-02  1.4224321533527493e-02  1.3239861564588310e-02  1.1856959446162644e-02  1.0125950539907325e-02  8.0997191396361048e-03  5.8349012861188517e-03  3.3920140158992113e-03  8.3465453645314720e-04  -1.7720110475752452e-03  -4.3631862899239501e-03  -6.8765002490301643e-03  -9.2538870124818234e-03  -1.1443042783288592e-02  -1.3398274990617029e-02  -1.5080621338388812e-02  -1.6457181164736094e-02  -1.7499662969992780e-02  -1.8182197905933003e-02  -1.8478482990620989e-02  -1.8358288070745160e-02  -1.7783282420149680e-02  -1.6702007180860252e-02  -1.5043627092939434e-02  -1.2709806600891787e-02  -9.5635979391838957e-03  -5.4134462159659974e-03  1.1025966109372041e-05  7.0976458685170678e-03  1.6417019045175379e-02  2.8841036494333065e-02  4.5777851471879467e-02  6.9685066240022020e-02  1.0543312646794606e-01  1.6417654094146400e-01  2.6911887126000111e-01  -3.9843886278234930e-01  -2.6882866957434959e-01  -1.8406567987993488e-01  -1.2559073474515653e-01  -8.4429611944767238e-02  -5.4491500257261002e-02  -3.2277295208616996e-02  -1.5575693596892846e-02  -2.9490414855443069e-03  6.5715743801147810e-03  1.3656451163691857e-02  1.8778416362360627e-02  2.2276285543651853e-02  2.4396695499025359e-02  2.5323023103090776e-02  2.5196267336461346e-02  2.4130679304921882e-02  2.2225721397716707e-02  1.9575214598145915e-02  1.6274096192278355e-02  1.2422963836793477e-02  8.1304780700834738e-03  3.5137036560888655e-03  -1.3034367537696429e-03  -6.1932758250453713e-03  -1.1028594308489686e-02  -1.5687260973014507e-02  -2.0056609063237803e-02  -2.4036867283319843e-02  -2.7543111024240358e-02  -3.0505433497109890e-02  -3.2867288589470398e-02  -3.4582157403334472e-02  -3.5608794745493777e-02  -3.5905308793428854e-02  -3.5422226050650207e-02  -3.4094509344449464e-02  -3.1832236478815348e-02  -2.8509299650612316e-02  -2.3949005381540371e-02  -1.7904737355252932e-02  -1.0032678542206137e-02  1.4844945916579245e-04  1.3319448041092211e-02  3.0460626883586004e-02  5.3021026668510725e-02  8.3222691231023896e-02  1.2457446444479831e-01  1.8317605418273061e-01  2.6801034672385327e-01  3.9765810443403682e-01  -4.8481062808020825e-01  -3.4856196539639184e-01  -2.4802243405123683e-01  -1.7431108938064505e-01  -1.1974240819161477e-01  -7.8895846196228289e-02  -4.7999374146535129e-02  -2.4471790674932811e-02  -6.5241402861973873e-03  7.1003439365878163e-03  1.7295822877265464e-02  2.4705229323565409e-02  2.9795237912461556e-02  3.2908383327314550e-02  3.4300613265220735e-02  3.4169335262710147e-02  3.2675020965354337e-02  2.9958159974984005e-02  2.6152523685692947e-02  2.1395159096496856e-02  1.5833212259478497e-02  9.6275481901896640e-03  2.9531682873312802e-03  -4.0033980302775418e-03  -1.1049274018184896e-02  -1.7992216806599584e-02  -2.4648346375899900e-02  -3.0849416236925147e-02  -3.6448467751454258e-02  -4.1322976125759019e-02  -4.5375016230447977e-02  -4.8528427500571354e-02  -5.0723314072531361e-02  -5.1908401160931782e-02  -5.2031763897115821e-02  -5.1030275275146746e-02  -4.8817825361355413e-02  -4.5271976208220280e-02  -4.0218242241165929e-02  -3.3410590359644374e-02  -2.4505946016053038e-02  -1.3029293912263012e-02  1.6759378114910013e-03  2.0520652923017545e-02  4.4779653654018030e-02  7.6259810090331295e-02  1.1755908172104806e-01  1.7246442959179165e-01  2.4640892613712551e-01  3.4708953560570482e-01  4.8340556831445525e-01  -5.4758731305113195e-01  -4.0703297163169366e-01  -2.9812166509759008e-01  -2.1421884932168000e-01  -1.4986167132232614e-01  -1.0039833218119201e-01  -6.2280000210248647e-02  -3.2860728006177897e-02  -1.0194366121498002e-02  7.1460998867552920e-03  2.0207166018847214e-02  2.9757208494088611e-02  3.6361666503061621e-02  4.0438897363951294e-02  4.2302613720336293e-02  4.2195020411773858e-02  4.0313354844838563e-02  3.6831454819896935e-02  3.1917161791769358e-02  2.5745775246572098e-02  1.8509399472723086e-02  1.0421881592919929e-02  1.7191405685900219e-03  -7.3449847707404044e-03  -1.6506745849204314e-02  -2.5503179800504479e-02  -3.4083858939021508e-02  -4.2021841892815354e-02  -4.9122084594652421e-02  -5.5226008547003005e-02  -6.0211581160494354e-02  -6.3988958787961639e-02  -6.6492297797972347e-02  -6.7668634772503775e-02  -6.7464741762426839e-02  -6.5812616008349575e-02  -6.2613840836104440e-02  -5.7722529052797469e-02  -5.0925976307011143e-02  -4.1921509751399945e-02  -3.0287269349934479e-02  -1.5443714685333836e-02  3.3986057149500331e-03  2.7311128967960060e-02  5.7747160227605294e-02  9.6678551734092719e-02  1.4677493537655145e-01  2.1160580009097035e-01  2.9583970715691210e-01  4.0495309127434576e-01  5.4560655394915336e-01  -5.9495436218448206e-01  -4.5198535723682315e-01  -3.3750674810819453e-01  -2.4659726336447588e-01  -1.7495770451737511e-01  -1.1870559458742073e-01  -7.4628961193061602e-02  -4.0172924916055709e-02  -1.3358358850448558e-02  7.3238241332161278e-03  2.3012339837745806e-02  3.4559973172913781e-02  4.2602055189957071e-02  4.7611362648366538e-02  4.9942487104104073e-02  4.9868368973835273e-02  4.7610989088321183e-02  4.3367423375410337e-02  3.7331712852565389e-02  2.9712359438655137e-02  2.0744810561754697e-02  1.0698130708594546e-02  -1.2475427712384146e-04  -1.1393302694506757e-02  -2.2761321720925449e-02  -3.3882952229012032e-02  -4.4430205734363452e-02  -5.4109223965516588e-02  -6.2672622845693013e-02  -6.9926003824302196e-02  -7.5727773543623131e-02  -7.9982515269444027e-02  -8.2629018920000213e-02  -8.3624520314394740e-02  -8.2926685840479561e-02  -8.0474488024942614e-02  -7.6168494276379367e-02  -6.9850378427046611e-02  -6.1280762577414861e-02  -5.0113848640320147e-02  -3.5866705098780496e-02  -1.7880527527155226e-02  4.7292596546152947e-03  3.3137323707412999e-02  6.8889599307913191e-02  1.1400051375104538e-01  1.7105693575248362e-01  2.4329827256325459e-01  3.3462877720739131e-01  4.4936501158940934e-01  5.9246340493743344e-01  -6.3174551194774653e-01  -4.8707841694053067e-01  -3.6873011894409391e-01  -2.7268767305717079e-01  -1.9547915110271799e-01  -1.3380745370536692e-01  -8.4793592412750196e-02  -4.6029891345285706e-02  -1.5570912834496065e-02  8.1167315664793342e-03  2.6218838425629297e-02  3.9638280818960953e-02  4.9053737585622210e-02  5.4970925985044161e-02  5.7766948079955180e-02  5.7729068829030533e-02  5.5089148129826709e-02  5.0054424949058950e-02  4.2834624167121964e-02  3.3664600721951841e-02  2.2821131664169648e-02  1.0632209774799882e-02  -2.5225457814973674e-03  -1.6220888761799574e-02  -3.0015521758263334e-02  -4.3457846522380023e-02  -5.6124151360753820e-02  -6.7639843377625464e-02  -7.7697627382704776e-02  -8.6066736880682129e-02  -9.2592087320652744e-02  -9.7184027603538337e-02  -9.9800726280077481e-02  -1.0042586016006283e-01  -9.9044153473381885e-02  -9.5616631166907246e-02  -9.0056477719513583e-02  -8.2205389959121702e-02  -7.1809451046985329e-02  -5.8492913317080161e-02  -4.1727884964246717e-02  -2.0797803250913016e-02  5.2471294786416425e-03  3.7643349150547824e-02  7.7974584453506982e-02  1.2823344092981320e-01  1.9086961202312047e-01  2.6879761507514172e-01  3.6534243221295121e-01  4.8399808932770322e-01  6.2882570457208686e-01  -6.6092857324351750e-01  -5.1500257805348304e-01  -3.9372040932819258e-01  -2.9370146421965382e-01  -2.1205924565233419e-01  -1.4594453710455049e-01  -9.2765852780855654e-02  -5.0270003138288222e-02  -1.6574000890041241e-02  9.8466910489493891e-03  3.0194351539156384e-02  4.5395517894620464e-02  5.6149366801594436e-02  6.2974052435189165e-02  6.6249919705480415e-02  6.6259877079781190e-02  6.3227550724509557e-02  5.7353484189836337e-02  4.8848844921976470e-02  3.7965086087784886e-02  2.5017073994028576e-02  1.0396675421973969e-02  -5.4259428890027295e-03  -2.1914795414272749e-02  -3.8493646684480833e-02  -5.4581311597689072e-02  -6.9630966009412529e-02  -8.3166516066016452e-02  -9.4809510199987124e-02  -1.0429212687486125e-01  -1.1145478649397854e-01  -1.1622995250211687e-01  -1.1861583770570694e-01  -1.1864456995692843e-01  -1.1634895160361380e-01  -1.1173068224091619e-01  -1.0473133177380829e-01  -9.5205888784084730e-02  -8.2897623720981611e-02  -6.7412386244201358e-02  -4.8190301894607560e-02  -2.4473157369745532e-02  4.7333187006929301e-03  4.0701280927216817e-02  8.5022603587272066e-02  1.3964193153732832e-01  2.0686643517847236e-01  2.8933266225724519e-01  3.8992492895415976e-01  5.1155756938075325e-01  6.5767671800859062e-01  -6.8444121168456618e-01  -5.3752665114401044e-01  -4.1388132999883331e-01  -3.1061809796058465e-01  -2.2529958911551512e-01  -1.5542700150587832e-01  -9.8648540114479003e-02  -5.2853491564429964e-02  -1.6229237681294108e-02  1.2723352262277688e-02  3.5203908714466561e-02  5.2143357974957463e-02  6.4242368411373943e-02  7.2012317889831770e-02  7.5816717056179067e-02  7.5912803364820411e-02  7.2493664342990274e-02  6.5730964458697402e-02  5.5817336888577478e-02  4.3006007280323964e-02  2.7643628255430170e-02  1.0191188686886510e-02  -8.7721086671948834e-03  -2.8565394607012875e-02  -4.8443033861795617e-02  -6.7647258125415166e-02  -8.5467654530866591e-02  -1.0129627372972946e-01  -1.1466774898009295e-01  -1.2527738256538151e-01  -1.3297542099599827e-01  -1.3774086138173525e-01  -1.3964152754089457e-01  -1.3878813507425486e-01  -1.3528891761780446e-01  -1.2920900514057196e-01  -1.2053611604534101e-01  -1.0915196165741330e-01  -9.4807392636184540e-02  -7.7098769173450932e-02  -5.5443203742977891e-02  -2.9051122932059366e-02  3.1039365094880579e-03  4.2316063689128207e-02  9.0172649449863862e-02  1.4856525568907664e-01  2.1967250482852260e-01  3.0590218306254918e-01  4.0979643704759378e-01  5.3382709951355833e-01  6.8096989686525855e-01  -7.0358184968669213e-01  -5.5586111901271185e-01  -4.3021992752964899e-01  -3.2419324578683317e-01  -2.3571234262173094e-01  -1.6256157420895234e-01  -1.0258862475202546e-01  -5.3807635868709396e-02  -1.4473930252615739e-02  1.6879967867918545e-02  4.1440265886775192e-02  6.0128965204584515e-02  7.3632851666623186e-02  8.2438720421854142e-02  8.6872345923883404e-02  8.7140842109094258e-02  8.3378992798978410e-02  7.5699895582681212e-02  6.4248916776134340e-02  4.9257677143629740e-02  3.1092034384198580e-02  1.0285667730974103e-02  -1.2449871634973103e-02  -3.6245699266965622e-02  -6.0128380457688944e-02  -8.3098795307231785e-02  -1.0422312807684747e-01  -1.2271740695146025e-01  -1.3800787596782094e-01  -1.4975583321725514e-01  -1.5784497916183240e-01  -1.6233815912625674e-01  -1.6341571291234733e-01  -1.6130845532285379e-01  -1.5623552171344507e-01  -1.4835282608592895e-01  -1.3771350730967205e-01  -1.2423857781429107e-01  -1.0769435372884795e-01  -8.7672945234091665e-02  -6.3572767207686551e-02  -3.4577425300441812e-02  3.6663401344761998e-04  4.2570573149373604e-02  9.3615115557260473e-02  1.5534385544882201e-01  2.2982622958753016e-01  3.1928262377486821e-01  4.2598107681193215e-01  5.5203210221109689e-01  7.0001981391931933e-01  -7.1923699205694658e-01  -5.7084433722080064e-01  -4.4345615516024584e-01  -3.3499560391646516e-01  -2.4371074272197113e-01  -1.6762143702525018e-01  -1.0474245243893453e-01  -5.3194585028065781e-02  -1.1293701549728294e-02  2.2396159295354840e-02  4.9043141822884842e-02  6.9552080513429190e-02  8.4584088209144662e-02  9.4585294557697583e-02  9.9822230741252557e-02  1.0042394688204956e-01  9.6432312567222123e-02  8.7861878095500723e-02  7.4768967560155455e-02  5.7326274465928029e-02  3.5894532133317732e-02  1.1078048953046917e-02  -1.6251822199146497e-02  -4.4979311950795353e-02  -7.3818822668915804e-02  -1.0143383158950095e-01  -1.2657791625072246e-01  -1.4822645616294614e-01  -1.6566858562180475e-01  -1.7854059991712862e-01  -1.8679927259829376e-01  -1.9064908154782406e-01  -1.9044557325279984e-01  -1.8659676098277264e-01  -1.7947808994762637e-01  -1.6936812340605931e-01  -1.5640494838965310e-01  -1.4055888546451217e-01  -1.2161543452798772e-01  -9.9162762226934348e-02  -7.2579611949704914e-02  -4.1021746342344900e-02  -3.4077186640715535e-03  4.1592069444313595e-02  9.5555543120316930e-02  1.6028788237680688e-01  2.3776871229984428e-01  3.3006406062182642e-01  4.3921590990782522e-01  5.6702561689372177e-01  7.1572926404677450e-01  -7.3202078979099938e-01  -5.8306235184737099e-01  -4.5410630331404178e-01  -3.4345010003419502e-01  -2.4962203294968835e-01  -1.7084138237113164e-01  -1.0526316386551311e-01  -5.1097208070490251e-02  -6.7098281653690242e-03  2.9307971747917355e-02  5.8106635308372255e-02  8.0570442146105301e-02  9.7327146403521220e-02  1.0876880064988484e-01  1.1508151099115675e-01  1.1628514898865555e-01  1.1228616934283990e-01  1.0294714290457505e-01  8.8174774625525365e-02  6.8023421648617369e-02  4.2803430835408308e-02  1.3174388924592464e-02  -1.9803860934781065e-02  -5.4689635237784764e-02  -8.9762785263368783e-02  -1.2320518429157305e-01  -1.5332278954326956e-01  -1.7875467050306729e-01  -1.9861517257051095e-01  -2.1253728096943247e-01  -2.2061784995765649e-01  -2.2329317818691335e-01  -2.2118569676017696e-01  -2.1495838658963737e-01  -2.0519959506109461e-01  -1.9234551871912012e-01  -1.7663630700274041e-01  -1.5809615912966071e-01  -1.3652691234246764e-01  -1.1150654454229435e-01  -8.2387124153356417e-02  -4.8290143074202208e-02  -8.1006156184075927e-03  3.9535117996344911e-02  9.6199404189286297e-02  1.6367015039761398e-01  2.4385495445352964e-01  3.3869214483315507e-01  4.5003353179128947e-01  5.7940758707586326e-01  7.2872828713516857e-01  -7.4236554795113441e-01  -5.9292996827236544e-01  -4.6254464016699187e-01  -3.4987740984043686e-01  -2.5370800916754199e-01  -1.7242539465765522e-01  -1.0430123439390393e-01  -4.7617086198455900e-02  -7.7759380123846201e-04  3.7607506261136923e-02  6.8676102531677316e-02  9.3293922127457019e-02  1.1205310935366283e-01  1.2528287141753564e-01  1.3307025523236035e-01  1.3529341383638263e-01  1.3167316080682917e-01  1.2185038101039058e-01  1.0549567228529468e-01  8.2451734150753797e-02  5.2897216278414136e-02  1.7503864413908214e-02  -2.2458019090713301e-02  -6.5117523638996436e-02  -1.0814153541578068e-01  -1.4901046581261204e-01  -1.8537440200885177e-01  -2.1539227670006855e-01  -2.3795565629478793e-01  -2.5274125105143946e-01  -2.6010004118937213e-01  -2.6084147894321857e-01  -2.5598821441550579e-01  -2.4656190180841983e-01  -2.3343091764030621e-01  -2.1722320481349056e-01  -1.9829068179645953e-01  -1.7670607829952001e-01  -1.5227488233464417e-01  -1.2455014897679606e-01  -9.2843491939641296e-02  -5.6230515433850804e-02  -1.3553170010835423e-02  3.6574656121555506e-02  9.5748571364881865e-02  1.6573051379235823e-01  2.4837199516411396e-01  3.4550590943366177e-01  4.5882259046168744e-01  5.8960522462097287e-01  7.3946370258511396e-01  -7.5058337277307574e-01  -6.0074695471693518e-01  -4.6904919521516153e-01  -3.5452709208648886e-01  -2.5618641049954821e-01  -1.7255921649061273e-01  -1.0201173122458161e-01  -4.2879681449317253e-02  6.4080443771571570e-03  4.7234817842363004e-02  8.0736273815282866e-02  1.0776815418389493e-01  1.2889238578358686e-01  1.4437451438739973e-01  1.5419061651043103e-01  1.5804745020640137e-01  1.5542512562705749e-01  1.4565599441919078e-01  1.2805470779445546e-01  1.0210896690169850e-01  6.7724245075345829e-02  2.5486873112660190e-02  -2.3125953100990197e-02  -7.5685651444167334e-02  -1.2898527596506434e-01  -1.7946257695689846e-01  -2.2378319494012969e-01  -2.5940563431408603e-01  -2.8494091883798855e-01  -3.0020651166444906e-01  -3.0600272158274461e-01  -3.0373366417263548e-01  -2.9501343734253271e-01  -2.8135539410216870e-01  -2.6398045811066517e-01  -2.4373294659161393e-01  -2.2107042771040653e-01  -1.9609248644048610e-01  -1.6858174759167394e-01  -1.3804122088433565e-01  -1.0372112575854739e-01  -6.4634968619436156e-02  -1.9569393697889292e-02  3.2903910729580488e-02  9.4402928117470294e-02  1.6668418127882106e-01  2.5155720425406208e-01  3.5076873558867466e-01  4.6587213595880417e-01  5.9792828396461029e-01  7.4825917933927577e-01  -7.5691003506829069e-01  -6.0673857425285849e-01  -4.7383631264314408e-01  -3.5760454439008899e-01  -2.5725042383918895e-01  -1.7142392006539450e-01  -9.8564196872690107e-02  -3.7042988178337607e-02  1.4702640891826732e-02  5.8064689837831258e-02  9.4192559307360035e-02  1.2394864495600998e-01  1.4788061163604452e-01  1.6620222521090711e-01  1.7878013189028530e-01  1.8513110375757927e-01  1.8444265382063868e-01  1.7563890249285519e-01  1.5752063484921544e-01  1.2900775683191240e-01  8.9494325072256950e-02  3.9281449640555834e-02  -2.0017254879708683e-02  -8.5272435515804768e-02  -1.5202270993830094e-01  -2.1512319290679197e-01  -2.6972294664992091e-01  -3.1223541134703553e-01  -3.4092996173908213e-01  -3.5596047591093893e-01  -3.5891235347611650e-01  -3.5212963667365016e-01  -3.3808471932887446e-01  -3.1894151508710356e-01  -2.9633712440062809e-01  -2.7133135789521351e-01  -2.4445272850560937e-01  -2.1578162811082138e-01  -1.8503357756829872e-01  -1.5162501973533035e-01  -1.1471735544671277e-01  -7.3242671194016493e-02  -2.5919079086856443e-02  2.8733378661123965e-02  9.2363084510469443e-02  1.6673009134291450e-01  2.5361409174308203e-01  3.5469272945426455e-01  4.7140440665333794e-01  6.0460835247517331e-01  7.5535678450991106e-01  -7.6153729449118512e-01  -6.1108587954784188e-01  -4.7708714699742383e-01  -3.5929251980990234e-01  -2.5708513325778359e-01  -1.6920818967375176e-01  -9.4152370787042750e-02  -3.0306743318331213e-02  2.3901206077059617e-02  6.9891086182666040e-02  1.0884805962355121e-01  1.4166717881967283e-01  1.6891144707417730e-01  1.9077323641121596e-01  2.0703421165287095e-01  2.1702715067100825e-01  2.1961460468155369e-01  2.1321489473405661e-01  1.9592391096119527e-01  1.6579408292843650e-01  1.2132235098202204e-01  6.2140490330866383e-02  -1.0225770714429455e-02  -9.1830595427857264e-02  -1.7641008203412575e-01  -2.5636403540927549e-01  -3.2443880389529894e-01  -3.7544852618543728e-01  -4.0728034304830080e-01  -4.2081554860934300e-01  -4.1900404374162281e-01  -4.0565982567755821e-01  -3.8446722541360207e-01  -3.5840454766322560e-01  -3.2954908420238649e-01  -2.9912345449929650e-01  -2.6764703290346264e-01  -2.3510263691120539e-01  -2.0107481406549738e-01  -1.6484692458383385e-01  -1.2546039772834294e-01  -8.1746443593607998e-02  -3.2343092649197248e-02  2.4288264362904970e-02  8.9831777402235649e-02  1.6605738301067213e-01  2.54724712975