<?xml version="1.0"?>
<VTKFile type="UnstructuredGrid"  version="0.1"  >
<UnstructuredGrid>
<Piece  NumberOfPoints="264" NumberOfCells="834">
<Points>
<DataArray  type="Float64"  NumberOfComponents="3"  format="ascii">1 0 1  0 1 0  1 0 0  0 0 0  0 0 1  0 1 1  1 1 0  1 1 1  2 0 1  2 0 0  2 1 0  2 1 1  3 0 1  3 0 0  3 1 0  3 1 1  4 0 1  4 0 0  4 1 0  4 1 1  5 0 1  5 0 0  5 1 0  5 1 1  6 0 1  6 0 0  6 1 0  6 1 1  7 0 1  7 0 0  7 1 0  7 1 1  8 0 1  8 0 0  8 1 0  8 1 1  9 0 1  9 0 0  9 1 0  9 1 1  10 0 1  10 0 0  10 1 0  10 1 1  0 2 0  0 2 1  1 2 0  1 2 1  2 2 0  2 2 1  3 2 0  3 2 1  4 2 0  4 2 1  5 2 0  5 2 1  6 2 0  6 2 1  7 2 0  7 2 1  8 2 0  8 2 1  9 2 0  9 2 1  10 2 0  10 2 1  1 0 2  0 0 2  0 1 2  1 1 2  2 0 2  2 1 2  3 0 2  3 1 2  4 0 2  4 1 2  5 0 2  5 1 2  6 0 2  6 1 2  7 0 2  7 1 2  8 0 2  8 1 2  9 0 2  9 1 2  10 0 2  10 1 2  0 2 2  1 2 2  2 2 2  3 2 2  4 2 2  5 2 2  6 2 2  7 2 2  8 2 2  9 2 2  10 2 2  1 0 3  0 0 3  0 1 3  1 1 3  2 0 3  2 1 3  3 0 3  3 1 3  4 0 3  4 1 3  5 0 3  5 1 3  6 0 3  6 1 3  7 0 3  7 1 3  8 0 3  8 1 3  9 0 3  9 1 3  10 0 3  10 1 3  0 2 3  1 2 3  2 2 3  3 2 3  4 2 3  5 2 3  6 2 3  7 2 3  8 2 3  9 2 3  10 2 3  1 0 4  0 0 4  0 1 4  1 1 4  2 0 4  2 1 4  3 0 4  3 1 4  5 0 4  4 0 4  4 1 4  5 1 4  6 0 4  6 1 4  7 0 4  7 1 4  8 0 4  8 1 4  9 0 4  9 1 4  10 0 4  10 1 4  0 2 4  1 2 4  2 2 4  3 2 4  4 2 4  5 2 4  6 2 4  7 2 4  8 2 4  9 2 4  10 2 4  1 0 5  0 0 5  0 1 5  1 1 5  2 0 5  2 1 5  3 0 5  3 1 5  4 0 5  4 1 5  5 0 5  5 1 5  6 0 5  6 1 5  7 0 5  7 1 5  8 0 5  8 1 5  9 0 5  9 1 5  10 0 5  10 1 5  0 2 5  1 2 5  2 2 5  3 2 5  4 2 5  5 2 5  6 2 5  7 2 5  8 2 5  9 2 5  10 2 5  1 0 6  0 0 6  0 1 6  1 1 6  2 0 6  2 1 6  3 0 6  3 1 6  4 0 6  4 1 6  5 0 6  5 1 6  6 0 6  6 1 6  7 0 6  7 1 6  8 0 6  8 1 6  9 0 6  9 1 6  10 0 6  10 1 6  0 2 6  1 2 6  2 2 6  3 2 6  4 2 6  5 2 6  6 2 6  7 2 6  8 2 6  9 2 6  10 2 6  1 0 7  0 0 7  0 1 7  1 1 7  2 0 7  2 1 7  3 0 7  3 1 7  4 0 7  4 1 7  5 0 7  5 1 7  6 0 7  6 1 7  7 0 7  7 1 7  8 0 7  8 1 7  9 0 7  9 1 7  10 0 7  10 1 7  0 2 7  1 2 7  2 2 7  3 2 7  4 2 7  5 2 7  6 2 7  7 2 7  8 2 7  9 2 7  10 2 7  </DataArray>
</Points>
<Cells>
<DataArray  type="UInt32"  Name="connectivity"  format="ascii">0 1 2 3  0 1 3 4  0 1 4 5  0 1 2 6  0 1 6 7  0 1 5 7  2 6 8 9  0 2 6 8  0 6 7 8  6 8 9 10  6 8 10 11  6 7 8 11  9 10 12 13  8 9 10 12  8 10 11 12  10 12 13 14  10 12 14 15  10 11 12 15  13 14 16 17  12 13 14 16  12 14 15 16  14 16 17 18  14 16 18 19  14 15 16 19  17 18 20 21  16 17 18 20  16 18 19 20  18 20 21 22  18 20 22 23  18 19 20 23  21 22 24 25  20 21 22 24  20 22 23 24  22 24 25 26  22 24 26 27  22 23 24 27  25 26 28 29  24 25 26 28  24 26 27 28  26 28 29 30  26 28 30 31  26 27 28 31  29 30 32 33  28 29 30 32  28 30 31 32  30 32 33 34  30 32 34 35  30 31 32 35  33 34 36 37  32 33 34 36  32 34 35 36  34 36 37 38  34 36 38 39  34 35 36 39  37 38 40 41  36 37 38 40  36 38 39 40  38 40 41 42  38 40 42 43  38 39 40 43  1 6 7 44  1 5 7 44  5 7 44 45  6 7 44 46  7 44 46 47  7 44 45 47  6 10 11 46  6 7 11 46  7 11 46 47  10 11 46 48  11 46 48 49  11 46 47 49  10 14 15 48  10 11 15 48  11 15 48 49  14 15 48 50  15 48 50 51  15 48 49 51  14 18 19 50  14 15 19 50  15 19 50 51  18 19 50 52  19 50 52 53  19 50 51 53  18 22 23 52  18 19 23 52  19 23 52 53  22 23 52 54  23 52 54 55  23 52 53 55  22 26 27 54  22 23 27 54  23 27 54 55  26 27 54 56  27 54 56 57  27 54 55 57  26 30 31 56  26 27 31 56  27 31 56 57  30 31 56 58  31 56 58 59  31 56 57 59  30 34 35 58  30 31 35 58  31 35 58 59  34 35 58 60  35 58 60 61  35 58 59 61  34 38 39 60  34 35 39 60  35 39 60 61  38 39 60 62  39 60 62 63  39 60 61 63  38 42 43 62  38 39 43 62  39 43 62 63  42 43 62 64  43 62 64 65  43 62 63 65  0 4 5 66  4 5 66 67  5 66 67 68  0 5 7 66  5 7 66 69  5 66 68 69  0 7 8 70  0 7 66 70  7 66 69 70  7 8 11 70  7 11 70 71  7 69 70 71  8 11 12 72  8 11 70 72  11 70 71 72  11 12 15 72  11 15 72 73  11 71 72 73  12 15 16 74  12 15 72 74  15 72 73 74  15 16 19 74  15 19 74 75  15 73 74 75  16 19 20 76  16 19 74 76  19 74 75 76  19 20 23 76  19 23 76 77  19 75 76 77  20 23 24 78  20 23 76 78  23 76 77 78  23 24 27 78  23 27 78 79  23 77 78 79  24 27 28 80  24 27 78 80  27 78 79 80  27 28 31 80  27 31 80 81  27 79 80 81  28 31 32 82  28 31 80 82  31 80 81 82  31 32 35 82  31 35 82 83  31 81 82 83  32 35 36 84  32 35 82 84  35 82 83 84  35 36 39 84  35 39 84 85  35 83 84 85  36 39 40 86  36 39 84 86  39 84 85 86  39 40 43 86  39 43 86 87  39 85 86 87  5 7 45 69  5 45 68 69  45 68 69 88  7 45 47 69  45 47 69 89  45 69 88 89  7 11 47 71  7 47 69 71  47 69 71 89  11 47 49 71  47 49 71 90  47 71 89 90  11 15 49 73  11 49 71 73  49 71 73 90  15 49 51 73  49 51 73 91  49 73 90 91  15 19 51 75  15 51 73 75  51 73 75 91  19 51 53 75  51 53 75 92  51 75 91 92  19 23 53 77  19 53 75 77  53 75 77 92  23 53 55 77  53 55 77 93  53 77 92 93  23 27 55 79  23 55 77 79  55 77 79 93  27 55 57 79  55 57 79 94  55 79 93 94  27 31 57 81  27 57 79 81  57 79 81 94  31 57 59 81  57 59 81 95  57 81 94 95  31 35 59 83  31 59 81 83  59 81 83 95  35 59 61 83  59 61 83 96  59 83 95 96  35 39 61 85  35 61 83 85  61 83 85 96  39 61 63 85  61 63 85 97  61 85 96 97  39 43 63 87  39 63 85 87  63 85 87 97  43 63 65 87  63 65 87 98  63 87 97 98  66 67 68 99  67 68 99 100  68 99 100 101  66 68 69 99  68 69 99 102  68 99 101 102  66 69 70 103  66 69 99 103  69 99 102 103  69 70 71 103  69 71 103 104  69 102 103 104  70 71 72 105  70 71 103 105  71 103 104 105  71 72 73 105  71 73 105 106  71 104 105 106  72 73 74 107  72 73 105 107  73 105 106 107  73 74 75 107  73 75 107 108  73 106 107 108  74 75 76 109  74 75 107 109  75 107 108 109  75 76 77 109  75 77 109 110  75 108 109 110  76 77 78 111  76 77 109 111  77 109 110 111  77 78 79 111  77 79 111 112  77 110 111 112  78 79 80 113  78 79 111 113  79 111 112 113  79 80 81 113  79 81 113 114  79 112 113 114  80 81 82 115  80 81 113 115  81 113 114 115  81 82 83 115  81 83 115 116  81 114 115 116  82 83 84 117  82 83 115 117  83 115 116 117  83 84 85 117  83 85 117 118  83 116 117 118  84 85 86 119  84 85 117 119  85 117 118 119  85 86 87 119  85 87 119 120  85 118 119 120  68 69 88 102  68 88 101 102  88 101 102 121  69 88 89 102  88 89 102 122  88 102 121 122  69 71 89 104  69 89 102 104  89 102 104 122  71 89 90 104  89 90 104 123  89 104 122 123  71 73 90 106  71 90 104 106  90 104 106 123  73 90 91 106  90 91 106 124  90 106 123 124  73 75 91 108  73 91 106 108  91 106 108 124  75 91 92 108  91 92 108 125  91 108 124 125  75 77 92 110  75 92 108 110  92 108 110 125  77 92 93 110  92 93 110 126  92 110 125 126  77 79 93 112  77 93 110 112  93 110 112 126  79 93 94 112  93 94 112 127  93 112 126 127  79 81 94 114  79 94 112 114  94 112 114 127  81 94 95 114  94 95 114 128  94 114 127 128  81 83 95 116  81 95 114 116  95 114 116 128  83 95 96 116  95 96 116 129  95 116 128 129  83 85 96 118  83 96 116 118  96 116 118 129  85 96 97 118  96 97 118 130  96 118 129 130  85 87 97 120  85 97 118 120  97 118 120 130  87 97 98 120  97 98 120 131  97 120 130 131  99 100 101 132  100 101 132 133  101 132 133 134  99 101 102 132  101 102 132 135  101 132 134 135  99 102 103 136  99 102 132 136  102 132 135 136  102 103 104 136  102 104 136 137  102 135 136 137  103 104 105 138  103 104 136 138  104 136 137 138  104 105 106 138  104 106 138 139  104 137 138 139  107 108 109 140  107 108 140 141  108 140 141 142  108 109 110 140  108 110 140 143  108 140 142 143  109 110 111 144  109 110 140 144  110 140 143 144  110 111 112 144  110 112 144 145  110 143 144 145  111 112 113 146  111 112 144 146  112 144 145 146  112 113 114 146  112 114 146 147  112 145 146 147  113 114 115 148  113 114 146 148  114 146 147 148  114 115 116 148  114 116 148 149  114 147 148 149  115 116 117 150  115 116 148 150  116 148 149 150  116 117 118 150  116 118 150 151  116 149 150 151  117 118 119 152  117 118 150 152  118 150 151 152  118 119 120 152  118 120 152 153  118 151 152 153  101 102 121 135  101 121 134 135  121 134 135 154  102 121 122 135  121 122 135 155  121 135 154 155  102 104 122 137  102 122 135 137  122 135 137 155  104 122 123 137  122 123 137 156  122 137 155 156  104 106 123 139  104 123 137 139  123 137 139 156  106 123 124 139  123 124 139 157  123 139 156 157  106 108 124 142  106 124 139 142  124 139 142 157  108 124 125 142  124 125 142 158  124 142 157 158  108 110 125 143  108 125 142 143  125 142 143 158  110 125 126 143  125 126 143 159  125 143 158 159  110 112 126 145  110 126 143 145  126 143 145 159  112 126 127 145  126 127 145 160  126 145 159 160  112 114 127 147  112 127 145 147  127 145 147 160  114 127 128 147  127 128 147 161  127 147 160 161  114 116 128 149  114 128 147 149  128 147 149 161  116 128 129 149  128 129 149 162  128 149 161 162  116 118 129 151  116 129 149 151  129 149 151 162  118 129 130 151  129 130 151 163  129 151 162 163  118 120 130 153  118 130 151 153  130 151 153 163  120 130 131 153  130 131 153 164  130 153 163 164  132 133 134 165  133 134 165 166  134 165 166 167  132 134 135 165  134 135 165 168  134 165 167 168  132 135 136 169  132 135 165 169  135 165 168 169  135 136 137 169  135 137 169 170  135 168 169 170  136 137 138 171  136 137 169 171  137 169 170 171  137 138 139 171  137 139 171 172  137 170 171 172  138 139 141 173  138 139 171 173  139 171 172 173  139 141 142 173  139 142 173 174  139 172 173 174  140 141 142 175  141 142 173 175  142 173 174 175  140 142 143 175  142 143 175 176  142 174 175 176  140 143 144 177  140 143 175 177  143 175 176 177  143 144 145 177  143 145 177 178  143 176 177 178  144 145 146 179  144 145 177 179  145 177 178 179  145 146 147 179  145 147 179 180  145 178 179 180  146 147 148 181  146 147 179 181  147 179 180 181  147 148 149 181  147 149 181 182  147 180 181 182  148 149 150 183  148 149 181 183  149 181 182 183  149 150 151 183  149 151 183 184  149 182 183 184  150 151 152 185  150 151 183 185  151 183 184 185  151 152 153 185  151 153 185 186  151 184 185 186  134 135 154 168  134 154 167 168  154 167 168 187  135 154 155 168  154 155 168 188  154 168 187 188  135 137 155 170  135 155 168 170  155 168 170 188  137 155 156 170  155 156 170 189  155 170 188 189  137 139 156 172  137 156 170 172  156 170 172 189  139 156 157 172  156 157 172 190  156 172 189 190  139 142 157 174  139 157 172 174  157 172 174 190  142 157 158 174  157 158 174 191  157 174 190 191  142 143 158 176  142 158 174 176  158 174 176 191  143 158 159 176  158 159 176 192  158 176 191 192  143 145 159 178  143 159 176 178  159 176 178 192  145 159 160 178  159 160 178 193  159 178 192 193  145 147 160 180  145 160 178 180  160 178 180 193  147 160 161 180  160 161 180 194  160 180 193 194  147 149 161 182  147 161 180 182  161 180 182 194  149 161 162 182  161 162 182 195  161 182 194 195  149 151 162 184  149 162 182 184  162 182 184 195  151 162 163 184  162 163 184 196  162 184 195 196  151 153 163 186  151 163 184 186  163 184 186 196  153 163 164 186  163 164 186 197  163 186 196 197  165 166 167 198  166 167 198 199  167 198 199 200  165 167 168 198  167 168 198 201  167 198 200 201  165 168 169 202  165 168 198 202  168 198 201 202  168 169 170 202  168 170 202 203  168 201 202 203  169 170 171 204  169 170 202 204  170 202 203 204  170 171 172 204  170 172 204 205  170 203 204 205  171 172 173 206  171 172 204 206  172 204 205 206  172 173 174 206  172 174 206 207  172 205 206 207  173 174 175 208  173 174 206 208  174 206 207 208  174 175 176 208  174 176 208 209  174 207 208 209  175 176 177 210  175 176 208 210  176 208 209 210  176 177 178 210  176 178 210 211  176 209 210 211  177 178 179 212  177 178 210 212  178 210 211 212  178 179 180 212  178 180 212 213  178 211 212 213  179 180 181 214  179 180 212 214  180 212 213 214  180 181 182 214  180 182 214 215  180 213 214 215  181 182 183 216  181 182 214 216  182 214 215 216  182 183 184 216  182 184 216 217  182 215 216 217  183 184 185 218  183 184 216 218  184 216 217 218  184 185 186 218  184 186 218 219  184 217 218 219  167 168 187 201  167 187 200 201  187 200 201 220  168 187 188 201  187 188 201 221  187 201 220 221  168 170 188 203  168 188 201 203  188 201 203 221  170 188 189 203  188 189 203 222  188 203 221 222  170 172 189 205  170 189 203 205  189 203 205 222  172 189 190 205  189 190 205 223  189 205 222 223  172 174 190 207  172 190 205 207  190 205 207 223  174 190 191 207  190 191 207 224  190 207 223 224  174 176 191 209  174 191 207 209  191 207 209 224  176 191 192 209  191 192 209 225  191 209 224 225  176 178 192 211  176 192 209 211  192 209 211 225  178 192 193 211  192 193 211 226  192 211 225 226  178 180 193 213  178 193 211 213  193 211 213 226  180 193 194 213  193 194 213 227  193 213 226 227  180 182 194 215  180 194 213 215  194 213 215 227  182 194 195 215  194 195 215 228  194 215 227 228  182 184 195 217  182 195 215 217  195 215 217 228  184 195 196 217  195 196 217 229  195 217 228 229  184 186 196 219  184 196 217 219  196 217 219 229  186 196 197 219  196 197 219 230  196 219 229 230  198 199 200 231  199 200 231 232  200 231 232 233  198 200 201 231  200 201 231 234  200 231 233 234  198 201 202 235  198 201 231 235  201 231 234 235  201 202 203 235  201 203 235 236  201 234 235 236  202 203 204 237  202 203 235 237  203 235 236 237  203 204 205 237  203 205 237 238  203 236 237 238  204 205 206 239  204 205 237 239  205 237 238 239  205 206 207 239  205 207 239 240  205 238 239 240  206 207 208 241  206 207 239 241  207 239 240 241  207 208 209 241  207 209 241 242  207 240 241 242  208 209 210 243  208 209 241 243  209 241 242 243  209 210 211 243  209 211 243 244  209 242 243 244  210 211 212 245  210 211 243 245  211 243 244 245  211 212 213 245  211 213 245 246  211 244 245 246  212 213 214 247  212 213 245 247  213 245 246 247  213 214 215 247  213 215 247 248  213 246 247 248  214 215 216 249  214 215 247 249  215 247 248 249  215 216 217 249  215 217 249 250  215 248 249 250  216 217 218 251  216 217 249 251  217 249 250 251  217 218 219 251  217 219 251 252  217 250 251 252  200 201 220 234  200 220 233 234  220 233 234 253  201 220 221 234  220 221 234 254  220 234 253 254  201 203 221 236  201 221 234 236  221 234 236 254  203 221 222 236  221 222 236 255  221 236 254 255  203 205 222 238  203 222 236 238  222 236 238 255  205 222 223 238  222 223 238 256  222 238 255 256  205 207 223 240  205 223 238 240  223 238 240 256  207 223 224 240  223 224 240 257  223 240 256 257  207 209 224 242  207 224 240 242  224 240 242 257  209 224 225 242  224 225 242 258  224 242 257 258  209 211 225 244  209 225 242 244  225 242 244 258  211 225 226 244  225 226 244 259  225 244 258 259  211 213 226 246  211 226 244 246  226 244 246 259  213 226 227 246  226 227 246 260  226 246 259 260  213 215 227 248  213 227 246 248  227 246 248 260  215 227 228 248  227 228 248 261  227 248 260 261  215 217 228 250  215 228 248 250  228 248 250 261  217 228 229 250  228 229 250 262  228 250 261 262  217 219 229 252  217 229 250 252  229 250 252 262  219 229 230 252  229 230 252 263  229 252 262 263  </DataArray>
<DataArray  type="UInt32"  Name="offsets"  format="ascii">4 8 12 16 20 24 28 32 36 40 44 48 52 56 60 64 68 72 76 80 84 88 92 96 100 104 108 112 116 120 124 128 132 136 140 144 148 152 156 160 164 168 172 176 180 184 188 192 196 200 204 208 212 216 220 224 228 232 236 240 244 248 252 256 260 264 268 272 276 280 284 288 292 296 300 304 308 312 316 320 324 328 332 336 340 344 348 352 356 360 364 368 372 376 380 384 388 392 396 400 404 408 412 416 420 424 428 432 436 440 444 448 452 456 460 464 468 472 476 480 484 488 492 496 500 504 508 512 516 520 524 528 532 536 540 544 548 552 556 560 564 568 572 576 580 584 588 592 596 600 604 608 612 616 620 624 628 632 636 640 644 648 652 656 660 664 668 672 676 680 684 688 692 696 700 704 708 712 716 720 724 728 732 736 740 744 748 752 756 760 764 768 772 776 780 784 788 792 796 800 804 808 812 816 820 824 828 832 836 840 844 848 852 856 860 864 868 872 876 880 884 888 892 896 900 904 908 912 916 920 924 928 932 936 940 944 948 952 956 960 964 968 972 976 980 984 988 992 996 1000 1004 1008 1012 1016 1020 1024 1028 1032 1036 1040 1044 1048 1052 1056 1060 1064 1068 1072 1076 1080 1084 1088 1092 1096 1100 1104 1108 1112 1116 1120 1124 1128 1132 1136 1140 1144 1148 1152 1156 1160 1164 1168 1172 1176 1180 1184 1188 1192 1196 1200 1204 1208 1212 1216 1220 1224 1228 1232 1236 1240 1244 1248 1252 1256 1260 1264 1268 1272 1276 1280 1284 1288 1292 1296 1300 1304 1308 1312 1316 1320 1324 1328 1332 1336 1340 1344 1348 1352 1356 1360 1364 1368 1372 1376 1380 1384 1388 1392 1396 1400 1404 1408 1412 1416 1420 1424 1428 1432 1436 1440 1444 1448 1452 1456 1460 1464 1468 1472 1476 1480 1484 1488 1492 1496 1500 1504 1508 1512 1516 1520 1524 1528 1532 1536 1540 1544 1548 1552 1556 1560 1564 1568 1572 1576 1580 1584 1588 1592 1596 1600 1604 1608 1612 1616 1620 1624 1628 1632 1636 1640 1644 1648 1652 1656 1660 1664 1668 1672 1676 1680 1684 1688 1692 1696 1700 1704 1708 1712 1716 1720 1724 1728 1732 1736 1740 1744 1748 1752 1756 1760 1764 1768 1772 1776 1780 1784 1788 1792 1796 1800 1804 1808 1812 1816 1820 1824 1828 1832 1836 1840 1844 1848 1852 1856 1860 1864 1868 1872 1876 1880 1884 1888 1892 1896 1900 1904 1908 1912 1916 1920 1924 1928 1932 1936 1940 1944 1948 1952 1956 1960 1964 1968 1972 1976 1980 1984 1988 1992 1996 2000 2004 2008 2012 2016 2020 2024 2028 2032 2036 2040 2044 2048 2052 2056 2060 2064 2068 2072 2076 2080 2084 2088 2092 2096 2100 2104 2108 2112 2116 2120 2124 2128 2132 2136 2140 2144 2148 2152 2156 2160 2164 2168 2172 2176 2180 2184 2188 2192 2196 2200 2204 2208 2212 2216 2220 2224 2228 2232 2236 2240 2244 2248 2252 2256 2260 2264 2268 2272 2276 2280 2284 2288 2292 2296 2300 2304 2308 2312 2316 2320 2324 2328 2332 2336 2340 2344 2348 2352 2356 2360 2364 2368 2372 2376 2380 2384 2388 2392 2396 2400 2404 2408 2412 2416 2420 2424 2428 2432 2436 2440 2444 2448 2452 2456 2460 2464 2468 2472 2476 2480 2484 2488 2492 2496 2500 2504 2508 2512 2516 2520 2524 2528 2532 2536 2540 2544 2548 2552 2556 2560 2564 2568 2572 2576 2580 2584 2588 2592 2596 2600 2604 2608 2612 2616 2620 2624 2628 2632 2636 2640 2644 2648 2652 2656 2660 2664 2668 2672 2676 2680 2684 2688 2692 2696 2700 2704 2708 2712 2716 2720 2724 2728 2732 2736 2740 2744 2748 2752 2756 2760 2764 2768 2772 2776 2780 2784 2788 2792 2796 2800 2804 2808 2812 2816 2820 2824 2828 2832 2836 2840 2844 2848 2852 2856 2860 2864 2868 2872 2876 2880 2884 2888 2892 2896 2900 2904 2908 2912 2916 2920 2924 2928 2932 2936 2940 2944 2948 2952 2956 2960 2964 2968 2972 2976 2980 2984 2988 2992 2996 3000 3004 3008 3012 3016 3020 3024 3028 3032 3036 3040 3044 3048 3052 3056 3060 3064 3068 3072 3076 3080 3084 3088 3092 3096 3100 3104 3108 3112 3116 3120 3124 3128 3132 3136 3140 3144 3148 3152 3156 3160 3164 3168 3172 3176 3180 3184 3188 3192 3196 3200 3204 3208 3212 3216 3220 3224 3228 3232 3236 3240 3244 3248 3252 3256 3260 3264 3268 3272 3276 3280 3284 3288 3292 3296 3300 3304 3308 3312 3316 3320 3324 3328 3332 3336 </DataArray>
<DataArray  type="UInt8"  Name="types"  format="ascii">10 10 10 10 10 10 10 10 10 10 10 10 10 10 10 10 10 10 10 10 10 10 10 10 10 10 10 10 10 10 10 10 10 10 10 10 10 10 10 10 10 10 10 10 10 10 10 10 10 10 10 10 10 10 10 10 10 10 10 10 10 10 10 10 10 10 10 10 10 10 10 10 10 10 10 10 10 10 10 10 10 10 10 10 10 10 10 10 10 10 10 10 10 10 10 10 10 10 10 10 10 10 10 10 10 10 10 10 10 10 10 10 10 10 10 10 10 10 10 10 10 10 10 10 10 10 10 10 10 10 10 10 10 10 10 10 10 10 10 10 10 10 10 10 10 10 10 10 10 10 10 10 10 10 10 10 10 10 10 10 10 10 10 10 10 10 10 10 10 10 10 10 10 10 10 10 10 10 10 10 10 10 10 10 10 10 10 10 10 10 10 10 10 10 10 10 10 10 10 10 10 10 10 10 10 10 10 10 10 10 10 10 10 10 10 10 10 10 10 10 10 10 10 10 10 10 10 10 10 10 10 10 10 10 10 10 10 10 10 10 10 10 10 10 10 10 10 10 10 10 10 10 10 10 10 10 10 10 10 10 10 10 10 10 10 10 10 10 10 10 10 10 10 10 10 10 10 10 10 10 10 10 10 10 10 10 10 10 10 10 10 10 10 10 10 10 10 10 10 10 10 10 10 10 10 10 10 10 10 10 10 10 10 10 10 10 10 10 10 10 10 10 10 10 10 10 10 10 10 10 10 10 10 10 10 10 10 10 10 10 10 10 10 10 10 10 10 10 10 10 10 10 10 10 10 10 10 10 10 10 10 10 10 10 10 10 10 10 10 10 10 10 10 10 10 10 10 10 10 10 10 10 10 10 10 10 10 10 10 10 10 10 10 10 10 10 10 10 10 10 10 10 10 10 10 10 10 10 10 10 10 10 10 10 10 10 10 10 10 10 10 10 10 10 10 10 10 10 10 10 10 10 10 10 10 10 10 10 10 10 10 10 10 10 10 10 10 10 10 10 10 10 10 10 10 10 10 10 10 10 10 10 10 10 10 10 10 10 10 10 10 10 10 10 10 10 10 10 10 10 10 10 10 10 10 10 10 10 10 10 10 10 10 10 10 10 10 10 10 10 10 10 10 10 10 10 10 10 10 10 10 10 10 10 10 10 10 10 10 10 10 10 10 10 10 10 10 10 10 10 10 10 10 10 10 10 10 10 10 10 10 10 10 10 10 10 10 10 10 10 10 10 10 10 10 10 10 10 10 10 10 10 10 10 10 10 10 10 10 10 10 10 10 10 10 10 10 10 10 10 10 10 10 10 10 10 10 10 10 10 10 10 10 10 10 10 10 10 10 10 10 10 10 10 10 10 10 10 10 10 10 10 10 10 10 10 10 10 10 10 10 10 10 10 10 10 10 10 10 10 10 10 10 10 10 10 10 10 10 10 10 10 10 10 10 10 10 10 10 10 10 10 10 10 10 10 10 10 10 10 10 10 10 10 10 10 10 10 10 10 10 10 10 10 10 10 10 10 10 10 10 10 10 10 10 10 10 10 10 10 10 10 10 10 10 10 10 10 10 10 10 10 10 10 10 10 10 10 10 10 10 10 10 10 10 10 10 10 10 10 10 10 10 10 10 10 10 10 10 10 10 10 10 10 10 10 10 10 10 10 10 10 10 10 10 10 10 10 10 10 10 10 10 10 10 10 10 10 10 10 10 10 10 10 10 10 10 10 10 10 10 10 10 10 10 10 10 10 10 10 10 10 10 10 10 10 10 10 10 10 10 10 10 10 10 10 10 10 10 10 10 10 10 10 10 10 10 10 10 10 10 10 10 10 10 10 10 10 10 10 10 10 10 10 10 10 10 10 10 10 10 10 10 10 </DataArray>
</Cells>
<PointData  Scalars="f_13"> 
<DataArray  type="Float64"  Name="f_13"  format="ascii">2.0579615690072876e-02  -2.2790628331890482e-03  -2.3754388088828536e-03  1.7166740113503417e-04  -2.3969721375984346e-03  1.8330255175831246e-02  1.8098445454812116e-02  -1.0515319216367777e-01  -2.9331476754722429e-02  3.4031934739393839e-03  -2.5911640916724248e-02  1.4923858749680069e-01  2.7803746477178867e-02  -3.2541626526298877e-03  2.4871048229839387e-02  -1.4162959474901468e-01  -2.0676479785859202e-02  2.4273269903845977e-03  -1.8574938158367894e-02  1.0531100090702673e-01  1.0327137293989768e-02  -1.2133227487063632e-03  9.2871276618922017e-03  -5.2556030654416601e-02  1.6298062567064646e-03  -1.7640898439587880e-04  1.3007254617765048e-03  -8.2724128318987129e-03  -1.1379489226153006e-02  1.3043417245401725e-03  -9.8764291810209456e-03  5.7851478563076347e-02  1.5081220464241523e-02  -1.7325722940536796e-03  1.3133660971152761e-02  -7.6691686847140825e-02  -1.1245318878892949e-02  1.2901896155040663e-03  -9.7992040970568718e-03  5.7404446184551386e-02  1.4244469545535026e-03  -9.8001904875633176e-05  1.1875519463847432e-03  -1.0067800632515224e-02  2.8436142517190545e-04  -2.5983946100488478e-03  -2.5660430584593117e-03  2.0615136426478949e-02  3.6824390835869369e-03  -2.9372211204969793e-02  -3.5355655576103386e-03  2.7898171337356822e-02  2.6402744155663641e-03  -2.0742751698307985e-02  -1.3197001551701767e-03  1.0346420913841180e-02  -1.8526086118423286e-04  1.6288864376945030e-03  1.4041887328195787e-03  -1.1387582666461088e-02  -1.8666705122162945e-03  1.5091651528778076e-02  1.3868408725191846e-03  -1.1243994135294323e-02  -9.7075369263561597e-05  1.3150421240229512e-03  -3.2402021839852635e-02  3.7920200517741554e-03  -2.8975781510224178e-02  1.6487565968417153e-01  4.4268097829978315e-02  -2.2457531875443948e-01  -3.7461324818140608e-02  1.9250433870670772e-01  2.6934980945873301e-02  -1.3814580506561830e-01  -1.3536201152934762e-02  6.8792961489860097e-02  -4.1486086733421822e-03  2.0963179752374460e-02  1.9344907031179612e-02  -9.7912296637387722e-02  -2.5113725964731534e-02  1.2714475422255606e-01  1.8653785079614096e-02  -9.4806519713366164e-02  -2.3700317733669598e-03  1.6684039437267751e-02  4.1168588212965995e-03  -3.2447042035042166e-02  4.4406816618210103e-02  -3.8343004572369423e-02  2.7499733078998834e-02  -1.3622012347309278e-02  -4.1385767071986448e-03  1.9344412709895946e-02  -2.5113166388885728e-02  1.8638289362300109e-02  -2.1830689249690859e-03  3.7442061074604245e-02  -4.4069310052378772e-03  3.3756986097534865e-02  -1.9067442356350170e-01  -4.7095870304809176e-02  2.4133939244345937e-01  1.9869284548449846e-02  -1.3700061576927286e-01  -1.4331427550168530e-02  9.3605367040566392e-02  1.1373300956771023e-02  -5.9384429549467092e-02  6.4372326206595777e-03  -3.2417296598094246e-02  -2.3738057464535535e-02  1.2011373640558250e-01  3.0430285245899240e-02  -1.5402767113608309e-01  -2.2566216315462611e-02  1.1466689488977402e-01  2.8671788202903562e-03  -2.0179736817349539e-02  -4.7973710113222183e-03  3.7548541621018901e-02  -4.7994314801953646e-02  3.0930687448181036e-02  -2.0894031619741647e-02  1.1933462769281989e-02  6.3895225056085879e-03  -2.3733907541642375e-02  3.0428316236689255e-02  -2.2546634230683395e-02  2.6407252881648201e-03  -3.8372003923748989e-02  4.5103900074517896e-03  -3.4529537254184665e-02  1.9537585567681032e-01  4.9218904601196926e-02  -2.5174522892387274e-01  -2.5456778252788005e-02  1.6043778474314907e-01  -1.2780741796627042e-02  1.2942954581365218e-02  -1.0730417639846188e-01  6.7942956933308304e-02  -5.2379722652861581e-03  2.6248155836094387e-02  2.2855965685243382e-02  -1.1564248303122239e-01  -2.9838336207463328e-02  1.5103069720610121e-01  2.2248623105010322e-02  -1.1305327099580713e-01  -2.8285248960244107e-03  1.9907869107123079e-02  4.9070488754193306e-03  -3.8470347972950375e-02  4.9997097739104365e-02  -3.4809908689423970e-02  2.3466823376142469e-02  -1.3619240893638836e-02  -5.1705763423593957e-03  2.2850319332250159e-02  -2.9836146404234251e-02  2.2229146694277960e-02  -2.6046760580128972e-03  3.4211083614928479e-02  -3.9974037224555113e-03  3.0523765337479764e-02  -1.7406166964363323e-01  -4.7618531828279756e-02  2.4148264059365887e-01  4.2180684770567127e-02  -2.1613043783507588e-01  -3.0863291525441327e-02  1.5954605231996988e-01  1.6947003828563689e-02  -8.6274257755256906e-02  1.4461476318554246e-03  -7.2595093655970456e-03  -1.7331690963556596e-02  8.7715631106333222e-02  2.3753223240126804e-02  -1.2025185163385424e-01  -1.7922161516298125e-02  9.1085425828743849e-02  2.2810660176477700e-03  -1.6057286427488708e-02  -4.3365948082794755e-03  3.4252557347237270e-02  -4.7735931728951866e-02  4.2950942627874619e-02  -3.1716013062655521e-02  1.7074057521245700e-02  1.4314762673852826e-03  -1.7329479786605921e-02  2.3750862601454134e-02  -1.7905808527317782e-02  2.0999236192123746e-03  -2.2055165285310520e-02  2.5639407790203168e-03  -1.9582187927400425e-02  1.1260344249128357e-01  3.1931394945160757e-02  -1.6232762783153290e-01  -3.1164478431587633e-02  1.5857422834470802e-01  2.3973213885652316e-02  -1.2208468738785537e-01  -1.3204359065557879e-02  6.7155559184526814e-02  6.8983584828897007e-04  -3.5225788329479187e-03  9.6385069115953702e-03  -4.8960797028874244e-02  -1.3903964443895592e-02  7.0650408753656288e-02  1.0613643457086729e-02  -5.4139266307709169e-02  -1.3498112810197392e-03  9.5236376081850975e-03  2.7708540498475368e-03  -2.2058083058357082e-02  3.1920591031926050e-02  -3.1201810005941126e-02  2.4021820317396962e-02  -1.3207438940821152e-02  6.9051481521982940e-04  9.6314461423508482e-03  -1.3892966075507428e-02  1.0596664803867372e-02  -1.2422282533574645e-03  2.7463133721623567e-03  -1.9110876931335561e-04  2.3306492077854041e-03  -1.9408129738744340e-02  -4.0093724179308086e-03  2.8223046269669868e-02  3.9534158818221483e-03  -2.7843387227865914e-02  -3.0574031225278284e-03  2.1543419463729417e-02  1.6880205316599280e-03  -1.1887997320843509e-02  -1.1398304368364112e-04  8.0740946306671923e-04  -1.1782140360708363e-03  8.2851367059178036e-03  1.7132539768152503e-03  -1.2052187579811460e-02  -1.3075256161723620e-03  9.2206421711782272e-03  1.4631705446066677e-04  -1.1726855240611540e-03  -1.9171791710641812e-04  2.5479772354579100e-03  -3.7064048616819441e-03  3.6474936844783029e-03  -2.8180647082729380e-03  1.5531072371633545e-03  -9.8302178760242403e-05  -1.0971307903674063e-03  1.5917150692212919e-03  -1.2140827059291795e-03  8.8343542596571654e-05  </DataArray> 
</PointData> 
</Piece>
</UnstructuredGrid>
</VTKFile>