<?xml version="1.0"?>
<VTKFile type="UnstructuredGrid"  version="0.1"  >
<UnstructuredGrid>
<Piece  NumberOfPoints="3136" NumberOfCells="6050">
<Points>
<DataArray  type="Float64"  NumberOfComponents="3"  format="ascii">-5 -5 0  -4.818181818181818 -5 0  -4.636363636363637 -5 0  -4.454545454545455 -5 0  -4.272727272727272 -5 0  -4.090909090909091 -5 0  -3.909090909090909 -5 0  -3.727272727272728 -5 0  -3.545454545454545 -5 0  -3.363636363636363 -5 0  -3.181818181818182 -5 0  -3 -5 0  -2.818181818181818 -5 0  -2.636363636363636 -5 0  -2.454545454545455 -5 0  -2.272727272727273 -5 0  -2.090909090909091 -5 0  -1.909090909090909 -5 0  -1.727272727272727 -5 0  -1.545454545454545 -5 0  -1.363636363636364 -5 0  -1.181818181818182 -5 0  -1 -5 0  -0.8181818181818183 -5 0  -0.6363636363636367 -5 0  -0.4545454545454541 -5 0  -0.2727272727272725 -5 0  -0.09090909090909083 -5 0  0.09090909090909083 -5 0  0.2727272727272725 -5 0  0.4545454545454541 -5 0  0.6363636363636367 -5 0  0.8181818181818183 -5 0  1 -5 0  1.181818181818182 -5 0  1.363636363636363 -5 0  1.545454545454546 -5 0  1.727272727272728 -5 0  1.909090909090909 -5 0  2.090909090909091 -5 0  2.272727272727272 -5 0  2.454545454545454 -5 0  2.636363636363637 -5 0  2.818181818181818 -5 0  3 -5 0  3.181818181818182 -5 0  3.363636363636363 -5 0  3.545454545454545 -5 0  3.727272727272727 -5 0  3.909090909090908 -5 0  4.090909090909092 -5 0  4.272727272727273 -5 0  4.454545454545455 -5 0  4.636363636363637 -5 0  4.818181818181818 -5 0  5 -5 0  -5 -4.818181818181818 0  -4.818181818181818 -4.818181818181818 0  -4.636363636363637 -4.818181818181818 0  -4.454545454545455 -4.818181818181818 0  -4.272727272727272 -4.818181818181818 0  -4.090909090909091 -4.818181818181818 0  -3.909090909090909 -4.818181818181818 0  -3.727272727272728 -4.818181818181818 0  -3.545454545454545 -4.818181818181818 0  -3.363636363636363 -4.818181818181818 0  -3.181818181818182 -4.818181818181818 0  -3 -4.818181818181818 0  -2.818181818181818 -4.818181818181818 0  -2.636363636363636 -4.818181818181818 0  -2.454545454545455 -4.818181818181818 0  -2.272727272727273 -4.818181818181818 0  -2.090909090909091 -4.818181818181818 0  -1.909090909090909 -4.818181818181818 0  -1.727272727272727 -4.818181818181818 0  -1.545454545454545 -4.818181818181818 0  -1.363636363636364 -4.818181818181818 0  -1.181818181818182 -4.818181818181818 0  -1 -4.818181818181818 0  -0.8181818181818183 -4.818181818181818 0  -0.6363636363636367 -4.818181818181818 0  -0.4545454545454541 -4.818181818181818 0  -0.2727272727272725 -4.818181818181818 0  -0.09090909090909083 -4.818181818181818 0  0.09090909090909083 -4.818181818181818 0  0.2727272727272725 -4.818181818181818 0  0.4545454545454541 -4.818181818181818 0  0.6363636363636367 -4.818181818181818 0  0.8181818181818183 -4.818181818181818 0  1 -4.818181818181818 0  1.181818181818182 -4.818181818181818 0  1.363636363636363 -4.818181818181818 0  1.545454545454546 -4.818181818181818 0  1.727272727272728 -4.818181818181818 0  1.909090909090909 -4.818181818181818 0  2.090909090909091 -4.818181818181818 0  2.272727272727272 -4.818181818181818 0  2.454545454545454 -4.818181818181818 0  2.636363636363637 -4.818181818181818 0  2.818181818181818 -4.818181818181818 0  3 -4.818181818181818 0  3.181818181818182 -4.818181818181818 0  3.363636363636363 -4.818181818181818 0  3.545454545454545 -4.818181818181818 0  3.727272727272727 -4.818181818181818 0  3.909090909090908 -4.818181818181818 0  4.090909090909092 -4.818181818181818 0  4.272727272727273 -4.818181818181818 0  4.454545454545455 -4.818181818181818 0  4.636363636363637 -4.818181818181818 0  4.818181818181818 -4.818181818181818 0  5 -4.818181818181818 0  -5 -4.636363636363637 0  -4.818181818181818 -4.636363636363637 0  -4.636363636363637 -4.636363636363637 0  -4.454545454545455 -4.636363636363637 0  -4.272727272727272 -4.636363636363637 0  -4.090909090909091 -4.636363636363637 0  -3.909090909090909 -4.636363636363637 0  -3.727272727272728 -4.636363636363637 0  -3.545454545454545 -4.636363636363637 0  -3.363636363636363 -4.636363636363637 0  -3.181818181818182 -4.636363636363637 0  -3 -4.636363636363637 0  -2.818181818181818 -4.636363636363637 0  -2.636363636363636 -4.636363636363637 0  -2.454545454545455 -4.636363636363637 0  -2.272727272727273 -4.636363636363637 0  -2.090909090909091 -4.636363636363637 0  -1.909090909090909 -4.636363636363637 0  -1.727272727272727 -4.636363636363637 0  -1.545454545454545 -4.636363636363637 0  -1.363636363636364 -4.636363636363637 0  -1.181818181818182 -4.636363636363637 0  -1 -4.636363636363637 0  -0.8181818181818183 -4.636363636363637 0  -0.6363636363636367 -4.636363636363637 0  -0.4545454545454541 -4.636363636363637 0  -0.2727272727272725 -4.636363636363637 0  -0.09090909090909083 -4.636363636363637 0  0.09090909090909083 -4.636363636363637 0  0.2727272727272725 -4.636363636363637 0  0.4545454545454541 -4.636363636363637 0  0.6363636363636367 -4.636363636363637 0  0.8181818181818183 -4.636363636363637 0  1 -4.636363636363637 0  1.181818181818182 -4.636363636363637 0  1.363636363636363 -4.636363636363637 0  1.545454545454546 -4.636363636363637 0  1.727272727272728 -4.636363636363637 0  1.909090909090909 -4.636363636363637 0  2.090909090909091 -4.636363636363637 0  2.272727272727272 -4.636363636363637 0  2.454545454545454 -4.636363636363637 0  2.636363636363637 -4.636363636363637 0  2.818181818181818 -4.636363636363637 0  3 -4.636363636363637 0  3.181818181818182 -4.636363636363637 0  3.363636363636363 -4.636363636363637 0  3.545454545454545 -4.636363636363637 0  3.727272727272727 -4.636363636363637 0  3.909090909090908 -4.636363636363637 0  4.090909090909092 -4.636363636363637 0  4.272727272727273 -4.636363636363637 0  4.454545454545455 -4.636363636363637 0  4.636363636363637 -4.636363636363637 0  4.818181818181818 -4.636363636363637 0  5 -4.636363636363637 0  -5 -4.454545454545455 0  -4.818181818181818 -4.454545454545455 0  -4.636363636363637 -4.454545454545455 0  -4.454545454545455 -4.454545454545455 0  -4.272727272727272 -4.454545454545455 0  -4.090909090909091 -4.454545454545455 0  -3.909090909090909 -4.454545454545455 0  -3.727272727272728 -4.454545454545455 0  -3.545454545454545 -4.454545454545455 0  -3.363636363636363 -4.454545454545455 0  -3.181818181818182 -4.454545454545455 0  -3 -4.454545454545455 0  -2.818181818181818 -4.454545454545455 0  -2.636363636363636 -4.454545454545455 0  -2.454545454545455 -4.454545454545455 0  -2.272727272727273 -4.454545454545455 0  -2.090909090909091 -4.454545454545455 0  -1.909090909090909 -4.454545454545455 0  -1.727272727272727 -4.454545454545455 0  -1.545454545454545 -4.454545454545455 0  -1.363636363636364 -4.454545454545455 0  -1.181818181818182 -4.454545454545455 0  -1 -4.454545454545455 0  -0.8181818181818183 -4.454545454545455 0  -0.6363636363636367 -4.454545454545455 0  -0.4545454545454541 -4.454545454545455 0  -0.2727272727272725 -4.454545454545455 0  -0.09090909090909083 -4.454545454545455 0  0.09090909090909083 -4.454545454545455 0  0.2727272727272725 -4.454545454545455 0  0.4545454545454541 -4.454545454545455 0  0.6363636363636367 -4.454545454545455 0  0.8181818181818183 -4.454545454545455 0  1 -4.454545454545455 0  1.181818181818182 -4.454545454545455 0  1.363636363636363 -4.454545454545455 0  1.545454545454546 -4.454545454545455 0  1.727272727272728 -4.454545454545455 0  1.909090909090909 -4.454545454545455 0  2.090909090909091 -4.454545454545455 0  2.272727272727272 -4.454545454545455 0  2.454545454545454 -4.454545454545455 0  2.636363636363637 -4.454545454545455 0  2.818181818181818 -4.454545454545455 0  3 -4.454545454545455 0  3.181818181818182 -4.454545454545455 0  3.363636363636363 -4.454545454545455 0  3.545454545454545 -4.454545454545455 0  3.727272727272727 -4.454545454545455 0  3.909090909090908 -4.454545454545455 0  4.090909090909092 -4.454545454545455 0  4.272727272727273 -4.454545454545455 0  4.454545454545455 -4.454545454545455 0  4.636363636363637 -4.454545454545455 0  4.818181818181818 -4.454545454545455 0  5 -4.454545454545455 0  -5 -4.272727272727272 0  -4.818181818181818 -4.272727272727272 0  -4.636363636363637 -4.272727272727272 0  -4.454545454545455 -4.272727272727272 0  -4.272727272727272 -4.272727272727272 0  -4.090909090909091 -4.272727272727272 0  -3.909090909090909 -4.272727272727272 0  -3.727272727272728 -4.272727272727272 0  -3.545454545454545 -4.272727272727272 0  -3.363636363636363 -4.272727272727272 0  -3.181818181818182 -4.272727272727272 0  -3 -4.272727272727272 0  -2.818181818181818 -4.272727272727272 0  -2.636363636363636 -4.272727272727272 0  -2.454545454545455 -4.272727272727272 0  -2.272727272727273 -4.272727272727272 0  -2.090909090909091 -4.272727272727272 0  -1.909090909090909 -4.272727272727272 0  -1.727272727272727 -4.272727272727272 0  -1.545454545454545 -4.272727272727272 0  -1.363636363636364 -4.272727272727272 0  -1.181818181818182 -4.272727272727272 0  -1 -4.272727272727272 0  -0.8181818181818183 -4.272727272727272 0  -0.6363636363636367 -4.272727272727272 0  -0.4545454545454541 -4.272727272727272 0  -0.2727272727272725 -4.272727272727272 0  -0.09090909090909083 -4.272727272727272 0  0.09090909090909083 -4.272727272727272 0  0.2727272727272725 -4.272727272727272 0  0.4545454545454541 -4.272727272727272 0  0.6363636363636367 -4.272727272727272 0  0.8181818181818183 -4.272727272727272 0  1 -4.272727272727272 0  1.181818181818182 -4.272727272727272 0  1.363636363636363 -4.272727272727272 0  1.545454545454546 -4.272727272727272 0  1.727272727272728 -4.272727272727272 0  1.909090909090909 -4.272727272727272 0  2.090909090909091 -4.272727272727272 0  2.272727272727272 -4.272727272727272 0  2.454545454545454 -4.272727272727272 0  2.636363636363637 -4.272727272727272 0  2.818181818181818 -4.272727272727272 0  3 -4.272727272727272 0  3.181818181818182 -4.272727272727272 0  3.363636363636363 -4.272727272727272 0  3.545454545454545 -4.272727272727272 0  3.727272727272727 -4.272727272727272 0  3.909090909090908 -4
[...]
<PointData  Vectors="f_6"> 
<DataArray  type="Float64"  Name="f_6"  NumberOfComponents="3" format="ascii">0.0000000000000000e+00 0.0000000000000000e+00 0.0000000000000000e+00  0.0000000000000000e+00 0.0000000000000000e+00 0.0000000000000000e+00  0.0000000000000000e+00 0.0000000000000000e+00 0.0000000000000000e+00  0.0000000000000000e+00 0.0000000000000000e+00 0.0000000000000000e+00  0.0000000000000000e+00 0.0000000000000000e+00 0.0000000000000000e+00  0.0000000000000000e+00 0.0000000000000000e+00 0.0000000000000000e+00  0.0000000000000000e+00 0.0000000000000000e+00 0.0000000000000000e+00  0.0000000000000000e+00 0.0000000000000000e+00 0.0000000000000000e+00  0.0000000000000000e+00 0.0000000000000000e+00 0.0000000000000000e+00  0.0000000000000000e+00 0.0000000000000000e+00 0.0000000000000000e+00  0.0000000000000000e+00 0.0000000000000000e+00 0.0000000000000000e+00  0.0000000000000000e+00 0.0000000000000000e+00 0.0000000000000000e+00  0.0000000000000000e+00 0.0000000000000000e+00 0.0000000000000000e+00  0.0000000000000000e+00 0.0000000000000000e+00 0.0000000000000000e+00  0.0000000000000000e+00 0.0000000000000000e+00 0.0000000000000000e+00  0.0000000000000000e+00 0.0000000000000000e+00 0.0000000000000000e+00  0.0000000000000000e+00 0.0000000000000000e+00 0.0000000000000000e+00  0.0000000000000000e+00 0.0000000000000000e+00 0.0000000000000000e+00  0.0000000000000000e+00 0.0000000000000000e+00 0.0000000000000000e+00  0.0000000000000000e+00 0.0000000000000000e+00 0.0000000000000000e+00  0.0000000000000000e+00 0.0000000000000000e+00 0.0000000000000000e+00  0.0000000000000000e+00 0.0000000000000000e+00 0.0000000000000000e+00  0.0000000000000000e+00 0.0000000000000000e+00 0.0000000000000000e+00  0.0000000000000000e+00 0.0000000000000000e+00 0.0000000000000000e+00  0.0000000000000000e+00 0.0000000000000000e+00 0.0000000000000000e+00  0.0000000000000000e+00 0.0000000000000000e+00 0.0000000000000000e+00  0.0000000000000000e+00 0.0000000000000000e+00 0.0000000000000000e+00  0.0000000000000000e+00 0.0000000000000000e+00 0.0000000000000000e+00  0.0000000000000000e+00 0.0000000000000000e+00 0.0000000000000000e+00  0.0000000000000000e+00 0.0000000000000000e+00 0.0000000000000000e+00  0.0000000000000000e+00 0.0000000000000000e+00 0.0000000000000000e+00  0.0000000000000000e+00 0.0000000000000000e+00 0.0000000000000000e+00  0.0000000000000000e+00 0.0000000000000000e+00 0.0000000000000000e+00  0.0000000000000000e+00 0.0000000000000000e+00 0.0000000000000000e+00  0.0000000000000000e+00 0.0000000000000000e+00 0.0000000000000000e+00  0.0000000000000000e+00 0.0000000000000000e+00 0.0000000000000000e+00  0.0000000000000000e+00 0.0000000000000000e+00 0.0000000000000000e+00  0.0000000000000000e+00 0.0000000000000000e+00 0.0000000000000000e+00  0.0000000000000000e+00 0.0000000000000000e+00 0.0000000000000000e+00  0.0000000000000000e+00 0.0000000000000000e+00 0.0000000000000000e+00  0.0000000000000000e+00 0.0000000000000000e+00 0.0000000000000000e+00  0.0000000000000000e+00 0.0000000000000000e+00 0.0000000000000000e+00  0.0000000000000000e+00 0.0000000000000000e+00 0.0000000000000000e+00  0.0000000000000000e+00 0.0000000000000000e+00 0.0000000000000000e+00  0.0000000000000000e+00 0.0000000000000000e+00 0.0000000000000000e+00  0.0000000000000000e+00 0.0000000000000000e+00 0.0000000000000000e+00  0.0000000000000000e+00 0.0000000000000000e+00 0.0000000000000000e+00  0.0000000000000000e+00 0.0000000000000000e+00 0.0000000000000000e+00  0.0000000000000000e+00 0.0000000000000000e+00 0.0000000000000000e+00  0.0000000000000000e+00 0.0000000000000000e+00 0.0000000000000000e+00  0.0000000000000000e+00 0.0000000000000000e+00 0.0000000000000000e+00  0.0000000000000000e+00 0.0000000000000000e+00 0.0000000000000000e+00  0.0000000000000000e+00 0.0000000000000000e+00 0.0000000000000000e+00  0.0000000000000000e+00 0.0000000000000000e+00 0.0000000000000000e+00  0.0000000000000000e+00 0.0000000000000000e+00 0.0000000000000000e+00  0.0000000000000000e+00 0.0000000000000000e+00 0.0000000000000000e+00  0.0000000000000000e+00 0.0000000000000000e+00 0.0000000000000000e+00  1.6770886745298490e-15 -8.5676166017744795e-15 0.0000000000000000e+00  -9.7162783665003792e-15 -1.0319950322553443e-14 0.0000000000000000e+00  -2.1327972944026284e-14 2.7563108796410816e-15 0.0000000000000000e+00  -1.5623454432763290e-14 2.7694367695862695e-14 0.0000000000000000e+00  1.8082908417548555e-14 4.2366683951425963e-14 0.0000000000000000e+00  6.3152734579342731e-14 1.6921332132184719e-14 0.0000000000000000e+00  7.3264233102949298e-14 -5.3684298559437839e-14 0.0000000000000000e+00  6.9348944495053994e-15 -1.2314175836412420e-13 0.0000000000000000e+00  -1.1878332571841989e-13 -1.1228620782618002e-13 0.0000000000000000e+00  -2.1011533241456764e-13 2.0965213762140049e-14 0.0000000000000000e+00  -1.5617934298668046e-13 2.1477352034641937e-13 0.0000000000000000e+00  6.4035499707320361e-14 3.1825025280699306e-13 0.0000000000000000e+00  3.2608513333013825e-13 2.0511106308158565e-13 0.0000000000000000e+00  4.3146015980839958e-13 -1.0157819266082131e-13 0.0000000000000000e+00  2.6522814286021439e-13 -4.1673882386835334e-13 0.0000000000000000e+00  -9.7497532416608328e-14 -5.2364323557462336e-13 0.0000000000000000e+00  -4.3862514081190641e-13 -3.4041857682319681e-13 0.0000000000000000e+00  -5.5875475467688013e-13 2.2414134850250670e-14 0.0000000000000000e+00  -4.1226799524272468e-13 3.5495528345651149e-13 0.0000000000000000e+00  -1.1231503936656942e-13 4.9875990574164595e-13 0.0000000000000000e+00  1.7294221018267581e-13 4.3094393823807369e-13 0.0000000000000000e+00  3.3102982514505767e-13 2.3858872536957406e-13 0.0000000000000000e+00  3.4571542936871316e-13 3.5206804514910822e-14 0.0000000000000000e+00  2.6728095659399328e-13 -1.0580922801446533e-13 0.0000000000000000e+00  1.6004128106298021e-13 -1.6749402507445151e-13 0.0000000000000000e+00  6.7828862133794813e-14 -1.6944663672167280e-13 0.0000000000000000e+00  6.9974100960863327e-15 -1.4096494211362055e-13 0.0000000000000000e+00  -2.4543568893471968e-14 -1.0472867471852527e-13 0.0000000000000000e+00  -3.5923892101128181e-14 -7.2737982642066486e-14 0.0000000000000000e+00  -3.6135946643174334e-14 -4.8849867798808927e-14 0.0000000000000000e+00  -3.1443879045180631e-14 -3.2644850634447237e-14 0.0000000000000000e+00  -2.5407330399774623e-14 -2.2238551642730945e-14 0.0000000000000000e+00  -1.9745640560949659e-14 -1.5741637027159585e-14 0.0000000000000000e+00  -1.5119053435228029e-14 -1.1801691011172794e-14 0.0000000000000000e+00  -1.1567927332131635e-14 -9.6292762583446101e-15 0.0000000000000000e+00  -8.7239095007742191e-15 -8.7388469803550806e-15 0.0000000000000000e+00  -6.0295070208418339e-15 -8.6057899502409715e-15 0.0000000000000000e+00  -3.0824482002892017e-15 -8.4944477996764418e-15 0.0000000000000000e+00  3.4361039864023888e-17 -7.6348375307549601e-15 0.0000000000000000e+00  2.7139322289317103e-15 -5.6472903689611753e-15 0.0000000000000000e+00  4.1906677148395058e-15 -2.8497703888061565e-15 0.0000000000000000e+00  4.0818619387991905e-15 -1.2318922320059810e-16 0.0000000000000000e+00  2.6947788860740907e-15 1.6290003232157863e-15 0.0000000000000000e+00  8.6327075988573605e-16 2.0339273214550693e-15 0.0000000000000000e+00  -5.4811303413486916e-16 1.4091056361534729e-15 0.0000000000000000e+00  -1.0992536861041666e-15 4.5752672506267279e-16 0.0000000000000000e+00  -8.9595719053156779e-16 -2.1322807770190130e-16 0.0000000000000000e+00  -3.6169453099687015e-16 -3.8891250051221615e-16 0.0000000000000000e+00  1.1402534864115480e-16 -2.3221700879263142e-16 0.0000000000000000e+00  2.2369658145358409e-16 6.4366156785845406e-18 0.0000000000000000e+00  -6.3643493866055044e-16 5.0996568667125376e-16 0.0000000000000000e+00  3.1071369980045945e-15 -5.1865662470630102e-17 0.0000000000000000e+00  -3.0776632049764902e-15 -6.5062173470715865e-16 0.0000000000000000e+00  7.5257841436830975e-16 2.5265042035022722e-16 0.0000000000000000e+00  0.0000000000000000e+00 0.0000000000000000e+00 0.0000000000000000e+00  0.0000000000000000e+00 0.0000000000000000e+00 0.0000000000000000e+00  -5.3741621549935553e-14 -3.3215326714589296e-14 0.0000000000000000e+00  -1.0045881731623060e-13 4.2430511807941234e-14 0.0000000000000000e+00  -3.9216679741035286e-14 1.6401365118029186e-13 0.0000000000000000e+00  1.6175078433199147e-13 1.9476075799868996e-13 0.0000000000000000e+00  3.7279834355990910e-13 -1.3191274023335442e-14 0.0000000000000000e+00  3.1970122007683682e-13 -4.3284729904519732e-13 0.0000000000000000e+00  -1.8859368134358815e-13 -7.3592962788330772e-13 0.0000000000000000e+00  -9.4715093581958783e-13 -4.5211340553967781e-13 0.0000000000000000e+00  -1.2968499635540814e-12 5.7225802147926597e-13 0.0000000000000000e+00  -5.6855975702463638e-13 1.7797853821435087e-12 0.0000000000000000e+00  1.1945669655381785e-12 2.0804309971638913e-12 0.0000000000000000e+00  2.9142717083389920e-12 6.9913246585104960e-13 0.0000000000000000e+00  3.0813717386646954e-12 -1.9360557937086445e-12 0.0000000000000000e+00  9.8993158724281177e-13 -4.1742595786843248e-12 0.0000000000000000e+00  -2.4488064360429851e-12 -4.2489625579597179e-12 0.0000000000000000e+00  -5.1629090140134773e-12 -1.6856337879408537e-12 0.0000000000000000e+00  -5.3830956883308253e-12 2.2200754603388511e-12 0.0000000000000000e+00  -2.9022661305633406e-12 5.2978965100116128e-12 0.0000000000000000e+00  8.8318631074187556e-13 5.9975806613202861e-12 0.0000000000000000e+00  4.0529573556030705e-12 4.2687063900055796e-12 0.0000000000000000e+00  5.3809799887516308e-12 1.2901648156330776e-12 0.0000000000000000e+00  4.8169073178601647e-12 -1.4906849918608650e-12 0.0000000000000000e+00  3.1347587420714815e-12 -3.1749786257738782e-12 0.0000000000000000e+00  1.2605677136675820e-12 -3.6304857077353037e-12 0.0000000000000000e+00  -1.9757387301249840e-13 -3.2260806936880189e-12 0.0000000000000000e+00  -1.0494102710996841e-12 -2.4482798659447077e-12 0.0000000000000000e+00  -1.3841970905321998e-12 -1.6578419626814119e-12 0.0000000000000000e+00  -1.3894547461350103e-12 -1.0304770383126502e-12 0.0000000000000000e+00  -1.2345527886367447e-12 -6.0391917075857178e-13 0.0000000000000000e+00  -1.0303700149154734e-12 -3.4730689837605780e-13 0.0000000000000000e+00  -8.3373294887001919e-13 -2.1109741998448008e-13 0.0000000000000000e+00  -6.6595374374535079e-13 -1.5144684259728032e-13 0.0000000000000000e+00  -5.2931107728879251e-13 -1.3730210327389411e-13 0.0000000000000000e+00  -4.1714355611798201e-13 -1.4888163498365655e-13 0.0000000000000000e+00  -3.1920463077745302e-13 -1.7280841038630301e-13 0.0000000000000000e+00  -2.2559614933859303e-13 -1.9709846867046655e-13 0.0000000000000000e+00  -1.3122835724855788e-13 -2.0884212890704102e-13 0.0000000000000000e+00  -3.9654697888052471e-14 -1.9649889198310575e-13 0.0000000000000000e+00  3.7046500657653258e-14 -1.5569667623514972e-13 0.0000000000000000e+00  8.4265475266836370e-14 -9.3880386664183944e-14 0.0000000000000000e+00  9.4104025183636859e-14 -2.8775642597075977e-14 0.0000000000000000e+00  7.1658590430265850e-14 2.0040243446202784e-14 0.0000000000000000e+00  3.3464320354556773e-14 4.1364153285854847e-14 0.0000000000000000e+00  -1.1005109334183371e-15 3.7351684520392707e-14 0.0000000000000000e+00  -1.9473085814814377e-14 2.0148116434119685e-14 0.0000000000000000e+00  -2.0346282098497791e-14 3.3562159595499965e-15 0.0000000000000000e+00  -1.0999719471084664e-14 -5.2747989457209864e-15 0.0000000000000000e+00  -6.8273325732118235e-16 -5.6782030461140090e-15 0.0000000000000000e+00  4.8662318622869810e-15 -2.2967580391615768e-15 0.0000000000000000e+00  4.5686485811960828e-15 6.8411544973534643e-16 0.0000000000000000e+00  1.6894613401314331e-15 1.7169282619341978e-15 0.0000000000000000e+00  1.4650952301649434e-14 -4.6469450160209686e-15 0.0000000000000000e+00  -3.3076042707865371e-14 -4.5469388225095992e-15 0.0000000000000000e+00  1.3518094239342392e-14 3.6134640471929531e-15 0.0000000000000000e+00  0.0000000000000000e+00 0.0000000000000000e+00 0.0000000000000000e+00  0.0000000000000000e+00 0.0000000000000000e+00 0.0000000000000000e+00  -3.8037402019399484e-13 2.3991769573169663e-13 0.0000000000000000e+00  -6.9623379066870175e-14 7.9990107169385630e-13 0.0000000000000000e+00  9.5464703976377754e-13 8.2596773391476372e-13 0.0000000000000000e+00  1.9011859274578250e-12 -4.0559660505775614e-13 0.0000000000000000e+00  1.2861296782409719e-12 -2.6025385136825895e-12 0.0000000000000000e+00  -1.7786654672151496e-12 -3.8331165822907495e-12 0.0000000000000000e+00  -5.8541736338568893e-12 -1.5109547640158352e-12 0.0000000000000000e+00  -6.9389487182930658e-12 4.9076237578552898e-12 0.0000000000000000e+00  -1.2214035292962719e-12 1.1620562187514987e-11 0.0000000000000000e+00  1.0434963378060600e-11 1.1680808679444652e-11 0.0000000000000000e+00  2.0453215306888953e-11 4.9033940721546999e-13 0.0000000000000000e+00  1.8572819069870634e-11 -1.8238259010531502e-11 0.0000000000000000e+00  4.3363829954700107e-13 -3.2217549887455958e-11 0.0000000000000000e+00  -2.6318802184780225e-11 -2.8437770047926217e-11 0.0000000000000000e+00  -4.5058486599681654e-11 -3.9071076269350494e-12 0.0000000000000000e+00  -4.1483100776081519e-11 3.0009517981571723e-11 0.0000000000000000e+00  -1.4392898854764465e-11 5.4297118903265267e-11 0.0000000000000000e+00  2.3039416104675097e-11 5.5069323922805109e-11 0.0000000000000000e+00  5.2309018214654590e-11 3.2225732082119628e-11 0.0000000000000000e+00  6.1223408740648072e-11 -2.0905608881782255e-12 0.0000000000000000e+00  4.9501057434609993e-11 -3.2497218122321072e-11 0.0000000000000000e+00  2.5950220979973127e-11 -4.9128052877475872e-11 0.0000000000000000e+00  1.4325932328827294e-12 -5.0676745489939298e-11 0.0000000000000000e+00  -1.6734581989546110e-11 -4.1879682215617835e-11 0.0000000000000000e+00  -2.6355837378587326e-11 -2.9065565607939889e-11 0.0000000000000000e+00  -2.8869117011499695e-11 -1.6996090471601614e-11 0.0000000000000000e+00  -2.7036401892982243e-11 -7.9432352599439361e-12 0.0000000000000000e+00  -2.3330760198578650e-11 -2.2522558435717569e-12 0.0000000000000000e+00  -1.9335863671784502e-11 6.9519287190019683e-13 0.0000000000000000e+00  -1.5803220588106339e-11 1.7519995756042445e-12 0.0000000000000000e+00  -1.2937352481486432e-11 1.6470215400402334e-12 0.0000000000000000e+00  -1.0660110921177447e-11 8.9212488941162291e-13 0.0000000000000000e+00  -8.7802107314385629e-12 -1.8093428633966732e-13 0.0000000000000000e+00  -7.0855500082727487e-12 -1.3426876573101506e-12 0.0000000000000000e+00  -5.4013452474409567e-12 -2.3945914763832490e-12 0.0000000000000000e+00  -3.6439234787528042e-12 -3.1347554236509060e-12 0.0000000000000000e+00  -1.8662273973864719e-12 -3.3810033893511229e-12 0.0000000000000000e+00  -2.6028367547117738e-13 -3.0442725582539609e-12 0.0000000000000000e+00  9.1527897275165517e-13 -2.2040322674271336e-12 0.0000000000000000e+00  1.4676858349881568e-12 -1.1170536132580220e-12 0.0000000000000000e+00  1.3902033044463880e-12 -1.2483474580507802e-13 0.0000000000000000e+00  8.8675324271035785e-13 5.0015117812404420e-13 0.0000000000000000e+00  2.7566431431660194e-13 6.7441347197326439e-13 0.0000000000000000e+00  -1.6743843961406448e-13 5.1256486315876118e-13 0.0000000000000000e+00  -3.2627804355793939e-13 2.2814115949627232e-13 0.0000000000000000e+00  -2.5457921244851251e-13 2.6010383937333888e-15 0.0000000000000000e+00  -9.4136448522041060e-14 -9.1928337170752422e-14 0.0000000000000000e+00  2.9464422954853459e-14 -8.4531129780442143e-14 0.0000000000000000e+00  6.6026537283183226e-14 -4.4032759752860050e-14 0.0000000000000000e+00  3.5786686898266215e-14 -2.0208641088733506e-14 0.0000000000000000e+00  -5.6070145342443686e-15 -2.5821491939876547e-14 0.0000000000000000e+00  -6.8042300328638086e-15 -5.8034104099398341e-14 0.0000000000000000e+00  -2.6577258738533205e-13 -1.4561115853501832e-14 0.0000000000000000e+00  1.9662166025234181e-13 4.0587354748273460e-14 0.0000000000000000e+00  0.0000000000000000e+00 0.0000000000000000e+00 0.0000000000000000e+00  0.0000000000000000e+00 0.0000000000000000e+00 0.0000000000000000e+00  -1.6487672320130235e-13 3.0268300344037143e-12 0.0000000000000000e+00  4.2685375305727934e-12 3.4536264748743320e-12 0.0000000000000000e+00  8.8544302891038087e-12 -2.3669422700470757e-12 0.0000000000000000e+00  5.8455013849697814e-12 -1.3055195301793008e-11 0.0000000000000000e+00  -9.6549834667806977e-12 -1.8813135240444131e-11 0.0000000000000000e+00  -3.0397992054119911e-11 -5.9453186307584235e-12 0.0000000000000000e+00  -3.4840882693755531e-11 2.8852203608342583e-11 0.0000000000000000e+00  -1.3809205725951938e-12 6.4810154207045885e-11 0.0000000000000000e+00  6.5840288277284474e-11 6.1912740187349637e-11 0.0000000000000000e+00  1.2242837468227515e-10 -8.2190658567000730e-12 0.0000000000000000e+00  1.0454201979139176e-10 -1.2442576268722892e-10 0.0000000000000000e+00  -1.8244375007882946e-11 -2.0897943052936760e-10 0.0000000000000000e+00  -1.9834202266638011e-10 -1.7340456035945132e-10 0.0000000000000000e+00  -3.2151694718195313e-10 8.0424317293884188e-12 0.0000000000000000e+00  -2.8047674745476639e-10 2.5842853995299517e-10 0.0000000000000000e+00  -5.8293588801950806e-11 4.3504690742794873e-10 0.0000000000000000e+00  2.4804823558616188e-10 4.2247789193190863e-10 0.0000000000000000e+00  4.8665774302510602e-10 2.1011003170955536e-10 0.0000000000000000e+00  5.4595992437213561e-10 -1.0491776857324267e-10 0.0000000000000000e+00  4.1405625318538802e-10 -3.8494598454803648e-10 0.0000000000000000e+00  1.6722342446699053e-10 -5.3216456414334386e-10 0.0000000000000000e+00  -8.9230922932247402e-11 -5.2719951453222255e-10 0.0000000000000000e+00  -2.7806023651830530e-10 -4.1421430629100126e-10 0.0000000000000000e+00  -3.7288491334576511e-10 -2.5940486734154040e-10 0.0000000000000000e+00  -3.8784966986397779e-10 -1.1597109905987598e-10 0.0000000000000000e+00  -3.5413153675132273e-10 -1.0624874851117921e-11 0.0000000000000000e+00  -3.0100819018345882e-10 5.2384416505702885e-11 0.0000000000000000e+00  -2.4761154992940284e-10 8.0790225758378683e-11 0.0000000000000000e+00  -2.0282774211840652e-10 8.5446610358559732e-11 0.0000000000000000e+00  -1.6854732146730007e-10 7.5656168659494777e-11 0.0000000000000000e+00  -1.4299982891584765e-10 5.7881832190687409e-11 0.0000000000000000e+00  -1.2300052951276185e-10 3.6217579791549249e-11 0.0000000000000000e+00  -1.0519029101607587e-10 1.3418815962209833e-11 0.0000000000000000e+00  -8.6755130977097831e-11 -8.1435345422395825e-12 0.0000000000000000e+00  -6.6028719983827082e-11 -2.5941979107985186e-11 0.0000000000000000e+00  -4.3058826258750237e-11 -3.7382269584335315e-11 0.0000000000000000e+00  -1.9850032162022019e-11 -4.0552158913201499e-11 0.0000000000000000e+00  1.5006378458516500e-13 -3.5275363798931921e-11 0.0000000000000000e+00  1.3443805826899295e-11 -2.3746368642444155e-11 0.0000000000000000e+00  1.8221746966585060e-11 -1.0071493002905943e-11 0.0000000000000000e+00  1.5436579570219492e-11 1.3137866530179191e-12 0.0000000000000000e+00  8.4395300044168461e-12 7.5344123088252188e-12 0.0000000000000000e+00  1.3167149742993291e-12 8.3219953640099419e-12 0.0000000000000000e+00  -3.0401433193662703e-12 5.6062726705493677e-12 0.0000000000000000e+00  -3.9520138008043540e-12 2.0462129096833673e-12 0.0000000000000000e+00  -2.5967107929502666e-12 -4.5292836238448000e-13 0.0000000000000000e+00  -7.7067678289931339e-13 -1.3693860935301330e-12 0.0000000000000000e+00  2.8484973347051086e-13 -1.2239534401611404e-12 0.0000000000000000e+00  3.2931814608971418e-13 -7.9907758029566256e-13 0.0000000000000000e+00  -1.6812569400346805e-13 -5.5231330711082944e-13 0.0000000000000000e+00  -6.0028830965581771e-13 -5.0831511831010976e-13 0.0000000000000000e+00  -7.3602697145250146e-13 -4.5236184680986322e-13 0.0000000000000000e+00  -1.3832065718762204e-12 1.0959021126008823e-13 0.0000000000000000e+00  2.4086117802580418e-12 3.6326216869589121e-13 0.0000000000000000e+00  0.0000000000000000e+00 0.0000000000000000e+00 0.0000000000000000e+00  0.0000000000000000e+00 0.00000000000000