<?xml version="1.0"?>
<VTKFile type="UnstructuredGrid"  version="0.1"  >
<UnstructuredGrid>
<Piece  NumberOfPoints="5101" NumberOfCells="10000">
<Points>
<DataArray  type="Float64"  NumberOfComponents="3"  format="ascii">0 0 0  0.2 0 0  0.4 0 0  0.6 0 0  0.8 0 0  1 0 0  1.2 0 0  1.4 0 0  1.6 0 0  1.8 0 0  2 0 0  2.2 0 0  2.4 0 0  2.6 0 0  2.8 0 0  3 0 0  3.2 0 0  3.4 0 0  3.6 0 0  3.8 0 0  4 0 0  4.2 0 0  4.4 0 0  4.6 0 0  4.8 0 0  5 0 0  5.2 0 0  5.4 0 0  5.6 0 0  5.8 0 0  6 0 0  6.2 0 0  6.4 0 0  6.6 0 0  6.8 0 0  7 0 0  7.2 0 0  7.4 0 0  7.6 0 0  7.8 0 0  8 0 0  8.199999999999999 0 0  8.4 0 0  8.6 0 0  8.800000000000001 0 0  9 0 0  9.199999999999999 0 0  9.4 0 0  9.6 0 0  9.800000000000001 0 0  10 0 0  0 0.2 0  0.2 0.2 0  0.4 0.2 0  0.6 0.2 0  0.8 0.2 0  1 0.2 0  1.2 0.2 0  1.4 0.2 0  1.6 0.2 0  1.8 0.2 0  2 0.2 0  2.2 0.2 0  2.4 0.2 0  2.6 0.2 0  2.8 0.2 0  3 0.2 0  3.2 0.2 0  3.4 0.2 0  3.6 0.2 0  3.8 0.2 0  4 0.2 0  4.2 0.2 0  4.4 0.2 0  4.6 0.2 0  4.8 0.2 0  5 0.2 0  5.2 0.2 0  5.4 0.2 0  5.6 0.2 0  5.8 0.2 0  6 0.2 0  6.2 0.2 0  6.4 0.2 0  6.6 0.2 0  6.8 0.2 0  7 0.2 0  7.2 0.2 0  7.4 0.2 0  7.6 0.2 0  7.8 0.2 0  8 0.2 0  8.199999999999999 0.2 0  8.4 0.2 0  8.6 0.2 0  8.800000000000001 0.2 0  9 0.2 0  9.199999999999999 0.2 0  9.4 0.2 0  9.6 0.2 0  9.800000000000001 0.2 0  10 0.2 0  0 0.4 0  0.2 0.4 0  0.4 0.4 0  0.6 0.4 0  0.8 0.4 0  1 0.4 0  1.2 0.4 0  1.4 0.4 0  1.6 0.4 0  1.8 0.4 0  2 0.4 0  2.2 0.4 0  2.4 0.4 0  2.6 0.4 0  2.8 0.4 0  3 0.4 0  3.2 0.4 0  3.4 0.4 0  3.6 0.4 0  3.8 0.4 0  4 0.4 0  4.2 0.4 0  4.4 0.4 0  4.6 0.4 0  4.8 0.4 0  5 0.4 0  5.2 0.4 0  5.4 0.4 0  5.6 0.4 0  5.8 0.4 0  6 0.4 0  6.2 0.4 0  6.4 0.4 0  6.6 0.4 0  6.8 0.4 0  7 0.4 0  7.2 0.4 0  7.4 0.4 0  7.6 0.4 0  7.8 0.4 0  8 0.4 0  8.199999999999999 0.4 0  8.4 0.4 0  8.6 0.4 0  8.800000000000001 0.4 0  9 0.4 0  9.199999999999999 0.4 0  9.4 0.4 0  9.6 0.4 0  9.800000000000001 0.4 0  10 0.4 0  0 0.6 0  0.2 0.6 0  0.4 0.6 0  0.6 0.6 0  0.8 0.6 0  1 0.6 0  1.2 0.6 0  1.4 0.6 0  1.6 0.6 0  1.8 0.6 0  2 0.6 0  2.2 0.6 0  2.4 0.6 0  2.6 0.6 0  2.8 0.6 0  3 0.6 0  3.2 0.6 0  3.4 0.6 0  3.6 0.6 0  3.8 0.6 0  4 0.6 0  4.2 0.6 0  4.4 0.6 0  4.6 0.6 0  4.8 0.6 0  5 0.6 0  5.2 0.6 0  5.4 0.6 0  5.6 0.6 0  5.8 0.6 0  6 0.6 0  6.2 0.6 0  6.4 0.6 0  6.6 0.6 0  6.8 0.6 0  7 0.6 0  7.2 0.6 0  7.4 0.6 0  7.6 0.6 0  7.8 0.6 0  8 0.6 0  8.199999999999999 0.6 0  8.4 0.6 0  8.6 0.6 0  8.800000000000001 0.6 0  9 0.6 0  9.199999999999999 0.6 0  9.4 0.6 0  9.6 0.6 0  9.800000000000001 0.6 0  10 0.6 0  0 0.8 0  0.2 0.8 0  0.4 0.8 0  0.6 0.8 0  0.8 0.8 0  1 0.8 0  1.2 0.8 0  1.4 0.8 0  1.6 0.8 0  1.8 0.8 0  2 0.8 0  2.2 0.8 0  2.4 0.8 0  2.6 0.8 0  2.8 0.8 0  3 0.8 0  3.2 0.8 0  3.4 0.8 0  3.6 0.8 0  3.8 0.8 0  4 0.8 0  4.2 0.8 0  4.4 0.8 0  4.6 0.8 0  4.8 0.8 0  5 0.8 0  5.2 0.8 0  5.4 0.8 0  5.6 0.8 0  5.8 0.8 0  6 0.8 0  6.2 0.8 0  6.4 0.8 0  6.6 0.8 0  6.8 0.8 0  7 0.8 0  7.2 0.8 0  7.4 0.8 0  7.6 0.8 0  7.8 0.8 0  8 0.8 0  8.199999999999999 0.8 0  8.4 0.8 0  8.6 0.8 0  8.800000000000001 0.8 0  9 0.8 0  9.199999999999999 0.8 0  9.4 0.8 0  9.6 0.8 0  9.800000000000001 0.8 0  10 0.8 0  0 1 0  0.2 1 0  0.4 1 0  0.6 1 0  0.8 1 0  1 1 0  1.2 1 0  1.4 1 0  1.6 1 0  1.8 1 0  2 1 0  2.2 1 0  2.4 1 0  2.6 1 0  2.8 1 0  3 1 0  3.2 1 0  3.4 1 0  3.6 1 0  3.8 1 0  4 1 0  4.2 1 0  4.4 1 0  4.6 1 0  4.8 1 0  5 1 0  5.2 1 0  5.4 1 0  5.6 1 0  5.8 1 0  6 1 0  6.2 1 0  6.4 1 0  6.6 1 0  6.8 1 0  7 1 0  7.2 1 0  7.4 1 0  7.6 1 0  7.8 1 0  8 1 0  8.199999999999999 1 0  8.4 1 0  8.6 1 0  8.800000000000001 1 0  9 1 0  9.199999999999999 1 0  9.4 1 0  9.6 1 0  9.800000000000001 1 0  10 1 0  0 1.2 0  0.2 1.2 0  0.4 1.2 0  0.6 1.2 0  0.8 1.2 0  1 1.2 0  1.2 1.2 0  1.4 1.2 0  1.6 1.2 0  1.8 1.2 0  2 1.2 0  2.2 1.2 0  2.4 1.2 0  2.6 1.2 0  2.8 1.2 0  3 1.2 0  3.2 1.2 0  3.4 1.2 0  3.6 1.2 0  3.8 1.2 0  4 1.2 0  4.2 1.2 0  4.4 1.2 0  4.6 1.2 0  4.8 1.2 0  5 1.2 0  5.2 1.2 0  5.4 1.2 0  5.6 1.2 0  5.8 1.2 0  6 1.2 0  6.2 1.2 0  6.4 1.2 0  6.6 1.2 0  6.8 1.2 0  7 1.2 0  7.2 1.2 0  7.4 1.2 0  7.6 1.2 0  7.8 1.2 0  8 1.2 0  8.199999999999999 1.2 0  8.4 1.2 0  8.6 1.2 0  8.800000000000001 1.2 0  9 1.2 0  9.199999999999999 1.2 0  9.4 1.2 0  9.6 1.2 0  9.800000000000001 1.2 0  10 1.2 0  0 1.4 0  0.2 1.4 0  0.4 1.4 0  0.6 1.4 0  0.8 1.4 0  1 1.4 0  1.2 1.4 0  1.4 1.4 0  1.6 1.4 0  1.8 1.4 0  2 1.4 0  2.2 1.4 0  2.4 1.4 0  2.6 1.4 0  2.8 1.4 0  3 1.4 0  3.2 1.4 0  3.4 1.4 0  3.6 1.4 0  3.8 1.4 0  4 1.4 0  4.2 1.4 0  4.4 1.4 0  4.6 1.4 0  4.8 1.4 0  5 1.4 0  5.2 1.4 0  5.4 1.4 0  5.6 1.4 0  5.8 1.4 0  6 1.4 0  6.2 1.4 0  6.4 1.4 0  6.6 1.4 0  6.8 1.4 0  7 1.4 0  7.2 1.4 0  7.4 1.4 0  7.6 1.4 0  7.8 1.4 0  8 1.4 0  8.199999999999999 1.4 0  8.4 1.4 0  8.6 1.4 0  8.800000000000001 1.4 0  9 1.4 0  9.199999999999999 1.4 0  9.4 1.4 0  9.6 1.4 0  9.800000000000001 1.4 0  10 1.4 0  0 1.6 0  0.2 1.6 0  0.4 1.6 0  0.6 1.6 0  0.8 1.6 0  1 1.6 0  1.2 1.6 0  1.4 1.6 0  1.6 1.6 0  1.8 1.6 0  2 1.6 0  2.2 1.6 0  2.4 1.6 0  2.6 1.6 0  2.8 1.6 0  3 1.6 0  3.2 1.6 0  3.4 1.6 0  3.6 1.6 0  3.8 1.6 0  4 1.6 0  4.2 1.6 0  4.4 1.6 0  4.6 1.6 0  4.8 1.6 0  5 1.6 0  5.2 1.6 0  5.4 1.6 0  5.6 1.6 0  5.8 1.6 0  6 1.6 0  6.2 1.6 0  6.4 1.6 0  6.6 1.6 0  6.8 1.6 0  7 1.6 0  7.2 1.6 0  7.4 1.6 0  7.6 1.6 0  7.8 1.6 0  8 1.6 0  8.199999999999999 1.6 0  8.4 1.6 0  8.6 1.6 0  8.800000000000001 1.6 0  9 1.6 0  9.199999999999999 1.6 0  9.4 1.6 0  9.6 1.6 0  9.800000000000001 1.6 0  10 1.6 0  0 1.8 0  0.2 1.8 0  0.4 1.8 0  0.6 1.8 0  0.8 1.8 0  1 1.8 0  1.2 1.8 0  1.4 1.8 0  1.6 1.8 0  1.8 1.8 0  2 1.8 0  2.2 1.8 0  2.4 1.8 0  2.6 1.8 0  2.8 1.8 0  3 1.8 0  3.2 1.8 0  3.4 1.8 0  3.6 1.8 0  3.8 1.8 0  4 1.8 0  4.2 1.8 0  4.4 1.8 0  4.6 1.8 0  4.8 1.8 0  5 1.8 0  5.2 1.8 0  5.4 1.8 0  5.6 1.8 0  5.8 1.8 0  6 1.8 0  6.2 1.8 0  6.4 1.8 0  6.6 1.8 0  6.8 1.8 0  7 1.8 0  7.2 1.8 0  7.4 1.8 0  7.6 1.8 0  7.8 1.8 0  8 1.8 0  8.199999999999999 1.8 0  8.4 1.8 0  8.6 1.8 0  8.800000000000001 1.8 0  9 1.8 0  9.199999999999999 1.8 0  9.4 1.8 0  9.6 1.8 0  9.800000000000001 1.8 0  10 1.8 0  0 2 0  0.2 2 0  0.4 2 0  0.6 2 0  0.8 2 0  1 2 0  1.2 2 0  1.4 2 0  1.6 2 0  1.8 2 0  2 2 0  2.2 2 0  2.4 2 0  2.6 2 0  2.8 2 0  3 2 0  3.2 2 0  3.4 2 0  3.6 2 0  3.8 2 0  4 2 0  4.2 2 0  4.4 2 0  4.6 2 0  4.8 2 0  5 2 0  5.2 2 0  5.4 2 0  5.6 2 0  5.8 2 0  6 2 0  6.2 2 0  6.4 2 0  6.6 2 0  6.8 2 0  7 2 0  7.2 2 0  7.4 2 0  7.6 2 0  7.8 2 0  8 2 0  8.199999999999999 2 0  8.4 2 0  8.6 2 0  8.800000000000001 2 0  9 2 0  9.199999999999999 2 0  9.4 2 0  9.6 2 0  9.800000000000001 2 0  10 2 0  0 2.2 0  0.2 2.2 0  0.4 2.2 0  0.6 2.2 0  0.8 2.2 0  1 2.2 0  1.2 2.2 0  1.4 2.2 0  1.6 2.2 0  1.8 2.2 0  2 2.2 0  2.2 2.2 0  2.4 2.2 0  2.6 2.2 0  2.8 2.2 0  3 2.2 0  3.2 2.2 0  3.4 2.2 0  3.6 2.2 0  3.8 2.2 0  4 2.2 0  4.2 2.2 0  4.4 2.2 0  4.6 2.2 0  4.8 2.2 0  5 2.2 0  5.2 2.2 0  5.4 2.2 0  5.6 2.2 0  5.8 2.2 0  6 2.2 0  6.2 2.2 0  6.4 2.2 0  6.6 2.2 0  6.8 2.2 0  7 2.2 0  7.2 2.2 0  7.4 2.2 0  7.6 2.2 0  7.8 2.2 0  8 2.2 0  8.199999999999999 2.2 0  8.4 2.2 0  8.6 2.2 0  8.800000000000001 2.2 0  9 2.2 0  9.199999999999999 2.2 0  9.4 2.2 0  9.6 2.2 0  9.800000000000001 2.2 0  10 2.2 0  0 2.4 0  0.2 2.4 0  0.4 2.4 0  0.6 2.4 0  0.8 2.4 0  1 2.4 0  1.2 2.4 0  1.4 2.4 0  1.6 2.4 0  1.8 2.4 0  2 2.4 0  2.2 2.4 0  2.4 2.4 0  2.6 2.4 0  2.8 2.4 0  3 2.4 0  3.2 2.4 0  3.4 2.4 0  3.6 2.4 0  3.8 2.4 0  4 2.4 0  4.2 2.4 0  4.4 2.4 0  4.6 2.4 0  4.8 2.4 0  5 2.4 0  5.2 2.4 0  5.4 2.4 0  5.6 2.4 0  5.8 2.4 0  6 2.4 0  6.2 2.4 0  6.4 2.4 0  6.6 2.4 0  6.8 2.4 0  7 2.4 0  7.2 2.4 0  7.4 2.4 0  7.6 2.4 0  7.8 2.4 0  8 2.4 0  8.199999999999999 2.4 0  8.4 2.4 0  8.6 2.4 0  8.800000000000001 2.4 0  9 2.4 0  9.199999999999999 2.4 0  9.4 2.4 0  9.6 2.4 0  9.800000000000001 2.4 0  10 2.4 0  0 2.6 0  0.2 2.6 0  0.4 2.6 0  0.6 2.6 0  0.8 2.6 0  1 2.6 0  1.2 2.6 0  1.4 2.6 0  1.6 2.6 0  1.8 2.6 0  2 2.6 0  2.2 2.6 0  2.4 2.6 0  2.6 2.6 0  2.8 2.6 0  3 2.6 0  3.2 2.6 0  3.4 2.6 0  3.6 2.6 0  3.8 2.6 0  4 2.6 0  4.2 2.6 0  4.4 2.6 0  4.6 2.6 0  4.8 2.6 0  5 2.6 0  5.2 2.6 0  5.4 2.6 0  5.6 2.6 0  5.8 2.6 0  6 2.6 0  6.2 2.6 0  6.4 2.6 0  6.6 2.6 0  6.8 2.6 0  7 2.6 0  7.2 2.6 0  7.4 2.6 0  7.6 2.6 0  7.8 2.6 0  8 2.6 0  8.199999999999999 2.6 0  8.4 2.6 0  8.6 2.6 0  8.800000000000001 2.6 0  9 2.6 0  9.199999999999999 2.6 0  9.4 2.6 0  9.6 2.6 0  9.800000000000001 2.6 0  10 2.6 0  0 2.8 0  0.2 2.8 0  0.4 2.8 0  0.6 2.8 0  0.8 2.8 0  1 2.8 0  1.2 2.8 0  1.4 2.8 0  1.6 2.8 0  1.8 2.8 0  2 2.8 0  2.2 2.8 0  2.4 2.8 0  2.6 2.8 0  2.8 2.8 0  3 2.8 0  3.2 2.8 0  3.4 2.8 0  3.6 2.8 0  3.8 2.8 0  4 2.8 0  4.2 2.8 0  4.4 2.8 0  4.6 2.8 0  4.8 2.8 0  5 2.8 0  5.2 2.8 0  5.4 2.8 0  5.6 2.8 0  5.8 2.8 0  6 2.8 0  6.2 2.8 0  6.4 2.8 0  6.6 2.8 0  6.8 2.8 0  7 2.8 0  7.2 2.8 0  7.4 2.8 0  7.6 2.8 0  7.8 2.8 0  8 2.8 0  8.199999999999999 2.8 0  8.4 2.8 0  8.6 2.8 0  8.800000000000001 2.8 0  9 2.8 0  9.199999999999999 2.8 0  9.4 2.8 0  9.6 2.8 0  9.800000000000001 2.8 0  10 2.8 0  0 3 0  0.2 3 0  0.4 3 0  0.6 3 0  0.8 3 0  1 3 0  1.2 3 0  1.4 3 0  1.6 3 0  1.8 3 0  2 3 0  2.2 3 0  2.4 3 0  2.6 3 0  2.8 3 0  3 3 0  3.2 3 0  3.4 3 0  3.6 3 0  3.8 3 0  4 3 0  4.2 3 0  4.4 3 0  4.6 3 0  4.8 3 0  5 3 0  5.2 3 0  5.4 3 0  5.6 3 0  5.8 3 0  6 3 0  6.2 3 0  6.4 3 0  6.6 3 0  6.8 3 0  7 3 0  7.2 3 0  7.4 3 0  7.6 3 0  7.8 3 0  8 3 0  8.199999999999999 3 0  8.4 3 0  8.6 3 0  8.800000000000001 3 0  9 3 0  9.199999999999999 3 0  9.4 3 0  9.6 3 0  9.800000000000001 3 0  10 3 0  0 3.2 0  0.2 3.2 0  0.4 3.2 0  0.6 3.2 0  0.8 3.2 0  1 3.2 0  1.2 3.2 0  1.4 3.2 0  1.6 3.2 0  1.8 3.2 0  2 3.2 0  2.2 3.2 0  2.4 3.2 0  2.6 3.2 0  2.8 3.2 0  3 3.2 0  3.2 3.2 0  3.4 3.2 0  3.6 3.2 0  3.8 3.2 0  4 3.2 0  4.2 3.2 0  4.4 3.2 0  4.6 3.2 0  4.8 3.2 0  5 3.2 0  5.2 3.2 0  5.4 3.2 0  5.6 3.2 0  5.8 3.2 0  6 3.2 0  6.2 3.2 0  6.4 3.2 0  6.6 3.2 0  6.8 3.2 0  7 3.2 0  7.2 3.2 0  7.4 3.2 0  7.6 3.2 0  7.8 3.2 0  8 3.2 0  8.199999999999999 3.2 0  8.4 3.2 0  8.6 3.2 0  8.800000000000001 3.2 0  9 3.2 0  9.199999999999999 3.2 0  9.4 3.2 0  9.6 3.2 0  9.800000000000001 3.2 0  10 3.2 0  0 3.4 0  0.2 3.4 0  0.4 3.4 0  0.6 3.4 0  0.8 3.4 0  1 
[...]
<PointData  Scalars="f_14"> 
<DataArray  type="Float64"  Name="f_14"  format="ascii">9.9584330075513083e-01  9.9553520567387455e-01  9.9477216516509803e-01  9.9377112317178240e-01  9.9269154891587197e-01  9.9163536549816023e-01  9.9066045384409129e-01  9.8979443226341557e-01  9.8904560027629029e-01  9.8841078973825780e-01  9.8788067197067753e-01  9.8744316587837189e-01  9.8708551464016847e-01  9.8679546857110589e-01  9.8656189134084171e-01  9.8637500959159985e-01  9.8622645340848902e-01  9.8610918335892306e-01  9.8601736419599129e-01  9.8594622149240618e-01  9.8589190195983867e-01  9.8585134839994593e-01  9.8582219425085804e-01  9.8580267923204479e-01  9.8579158576817749e-01  9.8578819510189786e-01  9.8579226189883973e-01  9.8580400644649091e-01  9.8582412406840270e-01  9.8585381197294342e-01  9.8589481429775738e-01  9.8594948644932001e-01  9.8602087978131470e-01  9.8611284693793377e-01  9.8623016641311001e-01  9.8637868145077456e-01  9.8656544244823852e-01  9.8679883221998832e-01  9.8708863795787716e-01  9.8744600987676212e-01  9.8788321088950282e-01  9.8841300989606951e-01  9.8904749866112318e-01  9.8979601509902571e-01  9.9066173536270397e-01  9.9163636714118297e-01  9.9269229917109958e-01  9.9377165825474878e-01  9.9477253060809423e-01  9.9553545859072801e-01  9.9584351293018680e-01  9.9553530834158976e-01  9.9541431388321466e-01  9.9492623722039220e-01  9.9416484330734967e-01  9.9327437132362539e-01  9.9236275884750091e-01  9.9149721026046655e-01  9.9071375997795474e-01  9.9002739042549581e-01  9.8944000398452692e-01  9.8894604744857406e-01  9.8853623394734791e-01  9.8819987478436500e-01  9.8792625600541140e-01  9.8770538725116641e-01  9.8752835500481129e-01  9.8738743800724382e-01  9.8727608849817372e-01  9.8718884521265815e-01  9.8712121859110957e-01  9.8706957193590317e-01  9.8703101156620854e-01  9.8700329241833762e-01  9.8698474163511196e-01  9.8697420054730356e-01  9.8697098444683062e-01  9.8697485926933837e-01  9.8698603446281852e-01  9.8700517171982982e-01  9.8703340973606624e-01  9.8707240558124842e-01  9.8712439346784187e-01  9.8719226147243000e-01  9.8727964581470251e-01  9.8739104020581270e-01  9.8753191390886796e-01  9.8770882556892903e-01  9.8792950919152778e-01  9.8820289191354804e-01  9.8853897771957366e-01  9.8894849350448921e-01  9.8944213974551198e-01  9.9002921368889507e-01  9.9071527749961596e-01  9.9149843654986147e-01  9.9236371539033852e-01  9.9327508642392670e-01  9.9416535270489392e-01  9.9492658557935432e-01  9.9541455667621992e-01  9.9553551334136070e-01  9.9477257645262296e-01  9.9492654010811121e-01  9.9495086650075948e-01  9.9468936592366075e-01  9.9421463154044809e-01  9.9362928328243472e-01  9.9301383518091701e-01  9.9242038770027419e-01  9.9187806834020198e-01  9.9140004326455933e-01  9.9098936449597519e-01  9.9064320105235071e-01  9.9035567445935713e-01  9.9011965138905689e-01  9.8992781275229580e-01  9.8977324550747892e-01  9.8964973307194515e-01  9.8955186410117546e-01  9.8947503828066352e-01  9.8941541910096753e-01  9.8936986427245732e-01  9.8933585179401606e-01  9.8931141164494696e-01  9.8929506811983670e-01  9.8928579492663848e-01  9.8928298360766254e-01  9.8928642514167031e-01  9.8929630441358107e-01  9.8931320735850514e-01  9.8933814080785831e-01  9.8937256520929939e-01  9.8941844026359249e-01  9.8947828287434836e-01  9.8955523530215272e-01  9.8965313856407577e-01  9.8977660120525579e-01  9.8993104554242006e-01  9.9012270083825149e-01  9.9035849353902872e-01  9.9064575601220317e-01  9.9099163407484292e-01  9.9140201745844370e-01  9.9187974695886039e-01  9.9242177894043815e-01  9.9301495443109877e-01  9.9363015235196162e-01  9.9421527848428515e-01  9.9468982549619911e-01  9.9495118132591354e-01  9.9492676162061344e-01  9.9477276433580553e-01  9.9377207558083502e-01  9.9416567109419596e-01  9.9468986915548019e-01  9.9496512934044412e-01  9.9496510879770916e-01  9.9476647542723773e-01  9.9445414123969400e-01  9.9409398161260054e-01  9.9372979786674187e-01  9.9338748135822319e-01  9.9308026453650344e-01  9.9281316145672882e-01  9.9258623141093183e-01  9.9239680015369414e-01  9.9224088972002078e-01  9.9211409264499761e-01  9.9201207579487916e-01  9.9193084755503946e-01  9.9186688016901403e-01  9.9181714793334130e-01  9.9177912011969260e-01  9.9175073270973069e-01  9.9173035330167170e-01  9.9171674732786819e-01  9.9170904987834851e-01  9.9170674516139057e-01  9.9170965439767644e-01  9.9171793235239680e-01  9.9173207247343342e-01  9.9175292048998387e-01  9.9178169611600930e-01  9.9182002195806063e-01  9.9186995755219165e-01  9.9193403425195370e-01  9.9201528289786978e-01  9.9211724001611468e-01  9.9224390858533329e-01  9.9239963462352820e-01  9.9258883899770356e-01  9.9281551274413993e-01  9.9308234220727520e-01  9.9338927881399053e-01  9.9373131767825895e-01  9.9409523402712385e-01  9.9445514294985471e-01  9.9476724877193146e-01  9.9496568150808362e-01  9.9496553484367312e-01  9.9469014723714944e-01  9.9416586824812703e-01  9.9377224295905120e-01  9.9269333397408821e-01  9.9327600027566887e-01  9.9421587920668819e-01  9.9496581013551877e-01  9.9540767909255834e-01  9.9558274572333183e-01  9.9557096898272956e-01  9.9544611691896401e-01  9.9526358546682703e-01  9.9506057773752921e-01  9.9485996085358153e-01  9.9467445770843821e-01  9.9451010128200468e-01  9.9436877016211855e-01  9.9424992845460158e-01  9.9415176284529172e-01  9.9407189452630051e-01  9.9400780542568357e-01  9.9395707979612080e-01  9.9391753089541690e-01  9.9388725917857501e-01  9.9386467196002692e-01  9.9384848328962461e-01  9.9383770536227822e-01  9.9383163800331331e-01  9.9382985979474503e-01  9.9383222262366411e-01  9.9383885040276998e-01  9.9385014210146538e-01  9.9386677875813745e-01  9.9388973356088117e-01  9.9392028310400871e-01  9.9396001620863550e-01  9.9401083378578170e-01  9.9407492850077328e-01  9.9415472561452845e-01  9.9425275518115863e-01  9.9437140931754575e-01  9.9451251492777937e-01  9.9467662091245146e-01  9.9486186047575020e-01  9.9506221083942925e-01  9.9526495759702349e-01  9.9544724050502320e-01  9.9557186202729220e-01  9.9558343095407420e-01  9.9540818364456707e-01  9.9496616570877705e-01  9.9421612249392211e-01  9.9327617290289227e-01  9.9269347972105382e-01  9.9163836190720378e-01  9.9236554790840303e-01  9.9363158826349673e-01  9.9476813183802093e-01  9.9558363679888340e-01  9.9608490372919234e-01  9.9634206058905705e-01  9.9643163531868750e-01  9.9641678481549256e-01  9.9634350016196538e-01  9.9624270891274258e-01  9.9613387871911485e-01  9.9602842350978638e-01  9.9593240296668495e-01  9.9584848273723481e-01  9.9577728203442450e-01  9.9571826344532000e-01  9.9567030068747897e-01  9.9563202915421445e-01  9.9560205489335019e-01  9.9557907423320990e-01  9.9556193890206779e-01  9.9554968921520459e-01  9.9554156952070971e-01  9.9553703452665487e-01  9.9553575152735119e-01  9.9553760126255608e-01  9.9554267869915469e-01  9.9555129404811882e-01  9.9556397351087300e-01  9.9558145829837474e-01  9.9560469907023508e-01  9.9563484072130293e-01  9.9567318890776424e-01  9.9572114420008973e-01  9.9578008141462604e-01  9.9585113942791526e-01  9.9593486941004550e-01  9.9603066596120426e-01  9.9613587640476009e-01  9.9624445255250904e-01  9.9634499014022571e-01  9.9641802927243206e-01  9.9643264840532231e-01  9.9634286108525327e-01  9.9608551416576985e-01  9.9558408314145808e-01  9.9476844365847261e-01  9.9363179914894584e-01  9.9236569545619868e-01  9.9163848413572142e-01  9.9066515191224014e-01  9.9150162565855404e-01  9.9301760780266257e-01  9.9445709105919888e-01  9.9557301016555833e-01  9.9634312889659138e-01  9.9682673023312418e-01  9.9709999150947282e-01  9.9723069036254597e-01  9.9727110059093338e-01  9.9725839471814570e-01  9.9721752368101135e-01  9.9716441816101797e-01  9.9710872573696996e-01  9.9705590175007852e-01  9.9700870733173552e-01  9.9696823780296817e-01  9.9693460646987087e-01  9.9690738752696972e-01  9.9688589638742109e-01  9.9686936337371213e-01  9.9685703919111013e-01  9.9684825777038932e-01  9.9684247304950679e-01  9.9683928012560485e-01  9.9683842712573234e-01  9.9683982145468042e-01  9.9684353226660571e-01  9.9684978967389049e-01  9.9685898002667161e-01  9.9687163527234479e-01  9.9688841261546823e-01  9.9691005804986665e-01  9.9693734331089645e-01  9.9697095972571081e-01  9.9701134348505394e-01  9.9705839406682628e-01  9.9711103004393620e-01  9.9716650410857377e-01  9.9721937371564340e-01  9.9726000238973134e-01  9.9727246851062801e-01  9.9723182811550304e-01  9.9710091379057553e-01  9.9682745542192974e-01  9.9634367822144343e-01  9.9557340751571155e-01  9.9445736336880075e-01  9.9301778573827304e-01  9.9150174390610291e-01  9.9066524496301633e-01  9.8980145578089473e-01  9.9072039695720504e-01  9.9242615780893906e-01  9.9409867137608376e-01  9.9544966323292694e-01  9.9643403203135983e-01  9.9710122386848399e-01  9.9752565787046776e-01  9.9777762216808663e-01  9.9791366764307010e-01  9.9797558119371976e-01  9.9799256382781498e-01  9.9798416200073270e-01  9.9796296212850222e-01  9.9793674267182897e-01  9.9791006979918939e-01  9.9788542660293300e-01  9.9786398670568077e-01  9.9784613153257495e-01  9.9783178963480845e-01  9.9782065581455703e-01  9.9781233071803765e-01  9.9780640860726633e-01  9.9780253172044187e-01  9.9780042320381346e-01  9.9779990625077275e-01  9.9780091412211358e-01  9.9780349358667919e-01  9.9780780259518387e-01  9.9781410137560811e-01  9.9782273436448810e-01  9.9783409818898028e-01  9.9784858791339714e-01  9.9786650943197641e-01  9.9788793953315336e-01  9.9791250596025549e-01  9.9793904693100854e-01  9.9796509255214705e-01  9.9798608993946825e-01  9.9799427293140852e-01  9.9797706566642508e-01  9.9791493009721788e-01  9.9777867143017407e-01  9.9752650705585055e-01  9.9710188898181829e-01  9.9643453127546566e-01  9.9545001710776659e-01  9.9409890350267927e-01  9.9242629617355371e-01  9.9072047477525693e-01  9.8980150669411315e-01  9.8905572668774167e-01  9.9003699316316862e-01  9.9188650502921205e-01  9.9373680250326935e-01  9.9526910953321501e-01  9.9642087686708503e-01  9.9723341482129590e-01  9.9777900635508721e-01  9.9812919727536420e-01  9.9834338276745982e-01  9.9846667026555214e-01  9.9853145811479915e-01  9.9856009662072931e-01  9.9856750193984556e-01  9.9856332460603792e-01  9.9855360340949895e-01  9.9854196458512434e-01  9.9853046251858535e-01  9.9852015518867987e-01  9.9851149102461034e-01  9.9850456518039643e-01  9.9849928688946354e-01  9.9849548683962996e-01  9.9849298430343592e-01  9.9849162742686914e-01  9.9849131580294770e-01  9.9849201143275268e-01  9.9849374174457028e-01  9.9849659606215913e-01  9.9850071457079603e-01  9.9850626634155193e-01  9.9851341023075302e-01  9.9852222918282896e-01  9.9853262408217469e-01  9.9854414704525996e-01  9.9855574504076383e-01  9.9856537223118846e-01  9.9856941326112880e-01  9.9856184111384449e-01  9.9853301659834992e-01  9.9846803346164759e-01  9.9834454927553651e-01  9.9813017140335036e-01  9.9777979621602786e-01  9.9723403103464037e-01  9.9642133211514416e-01  9.9526941910463640e-01  9.9373698578345970e-01  9.9188658759178616e-01  9.9003700851385756e-01  9.8905571106970636e-01  9.8842496910719602e-01  9.8945348421816859e-01  9.9141197306053808e-01  9.9339752229046074e-01  9.9506868831877682e-01  9.9634978079732661e-01  9.9727569323196474e-01  9.9791669334828592e-01  9.9834490418521149e-01  9.9862160435176017e-01  9.9879426327097176e-01  9.9889764316631269e-01  9.9895622287161678e-01  9.9898672203943850e-01  9.9900026200257908e-01  9.9900405198519948e-01  9.9900263601384187e-01  9.9899878353992422e-01  9.9899411055368303e-01  9.9898950504301554e-01  9.9898541370672722e-01  9.9898203129013252e-01  9.9897942169752096e-01  9.9897759141375964e-01  9.9897653016779908e-01  9.9897623019641446e-01  9.9897669278861978e-01  9.9897792806240870e-01  9.9897995064879075e-01  9.9898277017054027e-01  9.9898637149032310e-01  9.9899067601612512e-01  9.9899547183531912e-01  9.9900029648209610e-01  9.9900425066830323e-01  9.9900571316390607e-01  9.9900191536894112e-01  9.9898831901712859e-01  9.9895772371770453e-01  9.9889901811096138e-01  9.9879549204237672e-01  9.9862267463867060e-01  9.9834580966226583e-01  9.9791743185351278e-01  9.9727626559242566e-01  9.9635019067873942e-01  9.9506894332336360e-01  9.9339763631585198e-01  9.9141196954551802e-01  9.8945339916338948e-01  9.8842484586790214e-01  9.8790004467761239e-01  9.8896450183248241e-01  9.9100578821998353e-01  9.9309422626253641e-01  9.9487141943153190e-01  9.9625181440860178e-01  9.9726536467074567e-01  9.9798062730207748e-01  9.9846995777041014e-01  9.9879589178531125e-01  9.9900757442315047e-01  9.9914149779767425e-01  9.9922373131594366e-01  9.9927236281768028e-01  9.9929964184580322e-01  9.9931368336486359e-01  9.9931974842829496e-01  9.9932117387693420e-01  9.9932003170266970e-01  9.9931758826312356e-01  9.9931461766652308e-01  9.9931160863983015e-01  9.9930889269998857e-01  9.9930671417787253e-01  9.9930525902370237e-01  9.9930465782476152e-01  9.9930497708127508e-01  9.9930620976961193e-01  9.9930827086760021e-01  9.9931099648678290e-01  9.9931413815694192e-01  9.9931733818884994e-01  9.9932006841875909e-01  9.9932151213054843e-01  9.9932036568144311e-01  9.9931453031285877e-01  9.9930065453495631e-01  9.9927347350498086e-01  9.9922487642002689e-01  9.9914262246832675e-01  9.9900863412042318e-01  9.9879685173339772e-01  9.9847079129888172e-01  9.9798131402531443e-01  9.9726588929518556e-01  9.9625216676534289e-01  9.9487159611822107e-01  9.9309423400962538e-01  9.9100564861791829e-01  9.8896425616280681e-01  9.8789974936070712e-01  9.8746907850420729e-01  9.8856095964390256e-01  9.9066530901266114e-01  9.9283210651006892e-01  9.9469019332851394e-01  9.9614660299212410e-01  9.9722752695778860e-01  9.9800014267931481e-01  9.9853687174211692e-01  9.9890109804883043e-01  9.9914315415364596e-01  9.9930078558825530e-01  9.9940122939032749e-01  9.9946358500637666e-01  9.9950093838143317e-01  9.9952207646629010e-01  9.9953279509433723e-01  9.9953686391293795e-01  9.9953672341605038e-01  9.9953397959067369e-01  9.9952974560468943e-01  9.9952486465117074e-01  9.9952003733183925e-01  9.9951587237846351e-01  9.9951288049587328e-01  9.9951143488344696e-01  9.9951172429390589e-01  9.9951372138641847e-01  9.9951717918668481e-01  9.9952165384084235e-01  9.9952653729061303e-01  9.9953107364040139e-01  9.9953432971027767e-01  9.9953509180826339e-01  9.9953166296251561e-01  9.9952153348567918e-01  9.9950089038325440e-01  9.9946391809323831e-01  9.9940182782240072e-01  9.9930154296624152e-01  9.9914397866697058e-01  9.9890191343020374e-01  9.9853761577551270e-01  9.9800076492485978e-01  9.9722798701863014e-01  9.9614687029612359e-01  9.9469024906671089e-01  9.9283194802136343e-01  9.9066495632862017e-01  9.8856046284736676e-01  9.8746851490323684e-01  9.8711953305017996e-01  9.8823238235280464e-01  9.9038485914728192e-01  9.9261141302224909e-01  9.9453122317897924e-01  9.9604573034496646e-01  9.9717826855719904e-01  9.9799492716729477e-01  9.9856811337585871e-01  9.9896178336588626e-01  9.9922710276992199e-01  9.9940270637216189e-01  9.9951665944102075e-01  9.9958877172042659e-01  9.9963270474814747e-01  9.9965769604198151e-01  9.9966989447697230e-01  9.9967336497522230e-01  9.9967083275884727e-01  9.9966422646937247e-01  9.9965506056281617e-01  9.9964467953495817e-01  9.9963437589564419e-01  9.9962539415458029e-01  9.9961884428810377e-01  9.9961556480433789e-01  9.9961598777077665e-01  9.9962005609676308e-01  9.9962722307695029e-01  9.9963653140210385e-01  9.9964673643856039e-01  9.9965641922742299e-01  9.9966403342098409e-01  9.9966784264623365e-01  9.9966572021009048e-01  9.9965479183245554e-01  9.9963089937204452e-01  9.9958785037365128e-01  9.9951640060150526e-01  9.9940290465948045e-01  9.9922757989665989e-01  9.9896239068515746e-01  9.9856872962455812e-01  9.9799545442959758e-01  9.9717862870818619e-01  9.9604586354403502e-01  9.9453108943432689e-01  9.9261099737328062e-01  9.9038418034279496e-01  9.8823150368580503e-01  9.8711856287725452e-01  9.8683938686483330e-01  9.8796827829300760e-01  9.9015751646044603e-01  9.9242967148357941e-01  9.9439657712474094e-01  9.9595543489912308e-01  9.9712740184548487e-01  9.9797771098834787e-01  9.9857870953452055e-01  9.9899472657157640e-01  9.9927748991374454e-01  9.9946623034339044e-01  9.9958955106890657e-01  9.9966769514058829e-01  9.9971463909610780e-01  9.9973982920338544e-01  9.9974955135339971e-01  9.9974799113898916e-01  9.9973805130423288e-01  9.9972197761820980e-01  9.9970181715596218e-01  9.9967970683472496e-01  9.9965797630891973e-01  9.9963905773146156e-01  9.9962522811972854e-01  9.9961825780269020e-01  9.9961907722305243e-01  9.9962757788907131e-01  9.9964261951144096e-01  9.9966223830623857e-01  9.9968397559444122e-01  9.9970520507094773e-01  9.9972334387834982e-01  9.9973587320813140e-01  9.9974014123315214e-01  9.9973295143732488e-01  9.9970994367492505e-01  9.9966475807849298e-01  9.9958794554804697e-01  9.9946556850925461e-01  9.9927744126174212e-01  9.9899502067276380e-01  9.9857913022756128e-01  9.9797808753933592e-01  9.9712760086807184e-01  9.9595535546931224e-01  9.9439615059394237e-01  9.9242886685034204e-01  9.9015635142619385e-01  9.8796683480469982e-01  9.8683781732596398e-01  9.8661773508833883e-01  9.8775888274007961e-01  9.8997617679994310e-01  9.9228310820559473e-01  9.9428591348646356e-01  9.9587856512533024e-01  9.9708054854011985e-01  9.9795641196957963e-01  9.9857840487636362e-01  9.9901106924433747e-01  9.9930646921661348e-01  9.9950417229133326e-01  9.9963304197455016e-01  9.9971346295456676e-01  9.9975942132224294e-01  9.9978025600271858e-01  9.9978207660455387e-01  9.9976890988328515e-01  9.9974364392074300e-01  9.9970881166309222e-01  9.9966720917370055e-01  9.9962229530022717e-01  9.9957829136134446e-01  9.9953991782239349e-01  9.9951178392766982e-01  9.9949756866569861e-01  9.9949924135071566e-01  9.9951659579458263e-01  9.9954727484885164e-01  9.9958727509763678e-01  9.9963173772742320e-01  9.9967574249861690e-01  9.9971485647699809e-01  9.9974530487222801e-01  9.9976375391535532e-01  9.9976676986094271e-01  9.9975002942054403e-01  9.9970732281165675e-01  9.9962934041095663e-01  9.9950219474541624e-01  9.9930562472877404e-01  9.9901088797064597e-01  9.9857852198362784e-01  9.9795654764045827e-01  9.9708049017450928e-01  9.9587815524462586e-01  9.9428504530105799e-01  9.9228172996352804e-01  9.8997430531980957e-01  9.8775662523421037e-01  9.8661530435708211e-01  9.8644503165793418e-01  9.8759550394272611e-01  9.8983413898252959e-01  9.9216751781977963e-01  9.9419761144918362e-01  9.9581592058420398e-01  9.9704063042358471e-01  9.9793572205790837e-01  9.9857330267082178e-01  9.9901798102648842e-01  9.9932194605128977e-01  9.9952484199913882e-01  9.9965548712414309e-01  9.9973405056326559e-01  9.9977411079735046e-01  9.9978442061824857e-01  9.9977039013232882e-01  9.9973537052665518e-01  9.9968182366490677e-01  9.9961241482918850e-01  9.9953097887753484e-01  9.9944320515779705e-01  9.9935680966769791e-01  9.9928098152353295e-01  9.9922505932148853e-01  9.9919669343086648e-01  9.9920005210038643e-01  9.9923473425002418e-01  9.9929583326026838e-01  9.9937512913139881e-01  9.9946292799874648e-01  9.9954987020745889e-01  9.9962815641934233e-01  9.9969195797333898e-01  9.9973707903645559e-01  9.9976009592112158e-01  9.9975720253807288e-01  9.9972290214094894e-01  9.9964857651763195e-01  9.9952088408857920e-01  9.9931991507571127e-01  9.9901708840312919e-01  9.9857295601386065e-01  9.9793548172471214e-01  9.9704017263487443e-01  9.9581501155194829e-01  9.9419609453669100e-01  9.9216531477808967e-01  9.8983126582905678e-01  9.8759210105069928e-01  9.8644139243471629e-01  9.8631312069722743e-01  9.8747062967195165e-01  9.8972538671633570e-01  9.9207875892161612e-01  9.9412947489975434e-01  9.9576713340655809e-01  9.9700888858425740e-01  9.9791822541662656e-01  9.9856704865497592e-01  9.9901988249988649e-01  9.9932881665238549e-01  9.9953327622445776e-01  9.9966165266643658e-01  9.9973340812280842e