<?xml version="1.0"?>
<VTKFile type="UnstructuredGrid"  version="0.1"  >
<UnstructuredGrid>
<Piece  NumberOfPoints="5101" NumberOfCells="10000">
<Points>
<DataArray  type="Float64"  NumberOfComponents="3"  format="ascii">0 0 0  0.2 0 0  0.4 0 0  0.6 0 0  0.8 0 0  1 0 0  1.2 0 0  1.4 0 0  1.6 0 0  1.8 0 0  2 0 0  2.2 0 0  2.4 0 0  2.6 0 0  2.8 0 0  3 0 0  3.2 0 0  3.4 0 0  3.6 0 0  3.8 0 0  4 0 0  4.2 0 0  4.4 0 0  4.6 0 0  4.8 0 0  5 0 0  5.2 0 0  5.4 0 0  5.6 0 0  5.8 0 0  6 0 0  6.2 0 0  6.4 0 0  6.6 0 0  6.8 0 0  7 0 0  7.2 0 0  7.4 0 0  7.6 0 0  7.8 0 0  8 0 0  8.199999999999999 0 0  8.4 0 0  8.6 0 0  8.800000000000001 0 0  9 0 0  9.199999999999999 0 0  9.4 0 0  9.6 0 0  9.800000000000001 0 0  10 0 0  0 0.2 0  0.2 0.2 0  0.4 0.2 0  0.6 0.2 0  0.8 0.2 0  1 0.2 0  1.2 0.2 0  1.4 0.2 0  1.6 0.2 0  1.8 0.2 0  2 0.2 0  2.2 0.2 0  2.4 0.2 0  2.6 0.2 0  2.8 0.2 0  3 0.2 0  3.2 0.2 0  3.4 0.2 0  3.6 0.2 0  3.8 0.2 0  4 0.2 0  4.2 0.2 0  4.4 0.2 0  4.6 0.2 0  4.8 0.2 0  5 0.2 0  5.2 0.2 0  5.4 0.2 0  5.6 0.2 0  5.8 0.2 0  6 0.2 0  6.2 0.2 0  6.4 0.2 0  6.6 0.2 0  6.8 0.2 0  7 0.2 0  7.2 0.2 0  7.4 0.2 0  7.6 0.2 0  7.8 0.2 0  8 0.2 0  8.199999999999999 0.2 0  8.4 0.2 0  8.6 0.2 0  8.800000000000001 0.2 0  9 0.2 0  9.199999999999999 0.2 0  9.4 0.2 0  9.6 0.2 0  9.800000000000001 0.2 0  10 0.2 0  0 0.4 0  0.2 0.4 0  0.4 0.4 0  0.6 0.4 0  0.8 0.4 0  1 0.4 0  1.2 0.4 0  1.4 0.4 0  1.6 0.4 0  1.8 0.4 0  2 0.4 0  2.2 0.4 0  2.4 0.4 0  2.6 0.4 0  2.8 0.4 0  3 0.4 0  3.2 0.4 0  3.4 0.4 0  3.6 0.4 0  3.8 0.4 0  4 0.4 0  4.2 0.4 0  4.4 0.4 0  4.6 0.4 0  4.8 0.4 0  5 0.4 0  5.2 0.4 0  5.4 0.4 0  5.6 0.4 0  5.8 0.4 0  6 0.4 0  6.2 0.4 0  6.4 0.4 0  6.6 0.4 0  6.8 0.4 0  7 0.4 0  7.2 0.4 0  7.4 0.4 0  7.6 0.4 0  7.8 0.4 0  8 0.4 0  8.199999999999999 0.4 0  8.4 0.4 0  8.6 0.4 0  8.800000000000001 0.4 0  9 0.4 0  9.199999999999999 0.4 0  9.4 0.4 0  9.6 0.4 0  9.800000000000001 0.4 0  10 0.4 0  0 0.6 0  0.2 0.6 0  0.4 0.6 0  0.6 0.6 0  0.8 0.6 0  1 0.6 0  1.2 0.6 0  1.4 0.6 0  1.6 0.6 0  1.8 0.6 0  2 0.6 0  2.2 0.6 0  2.4 0.6 0  2.6 0.6 0  2.8 0.6 0  3 0.6 0  3.2 0.6 0  3.4 0.6 0  3.6 0.6 0  3.8 0.6 0  4 0.6 0  4.2 0.6 0  4.4 0.6 0  4.6 0.6 0  4.8 0.6 0  5 0.6 0  5.2 0.6 0  5.4 0.6 0  5.6 0.6 0  5.8 0.6 0  6 0.6 0  6.2 0.6 0  6.4 0.6 0  6.6 0.6 0  6.8 0.6 0  7 0.6 0  7.2 0.6 0  7.4 0.6 0  7.6 0.6 0  7.8 0.6 0  8 0.6 0  8.199999999999999 0.6 0  8.4 0.6 0  8.6 0.6 0  8.800000000000001 0.6 0  9 0.6 0  9.199999999999999 0.6 0  9.4 0.6 0  9.6 0.6 0  9.800000000000001 0.6 0  10 0.6 0  0 0.8 0  0.2 0.8 0  0.4 0.8 0  0.6 0.8 0  0.8 0.8 0  1 0.8 0  1.2 0.8 0  1.4 0.8 0  1.6 0.8 0  1.8 0.8 0  2 0.8 0  2.2 0.8 0  2.4 0.8 0  2.6 0.8 0  2.8 0.8 0  3 0.8 0  3.2 0.8 0  3.4 0.8 0  3.6 0.8 0  3.8 0.8 0  4 0.8 0  4.2 0.8 0  4.4 0.8 0  4.6 0.8 0  4.8 0.8 0  5 0.8 0  5.2 0.8 0  5.4 0.8 0  5.6 0.8 0  5.8 0.8 0  6 0.8 0  6.2 0.8 0  6.4 0.8 0  6.6 0.8 0  6.8 0.8 0  7 0.8 0  7.2 0.8 0  7.4 0.8 0  7.6 0.8 0  7.8 0.8 0  8 0.8 0  8.199999999999999 0.8 0  8.4 0.8 0  8.6 0.8 0  8.800000000000001 0.8 0  9 0.8 0  9.199999999999999 0.8 0  9.4 0.8 0  9.6 0.8 0  9.800000000000001 0.8 0  10 0.8 0  0 1 0  0.2 1 0  0.4 1 0  0.6 1 0  0.8 1 0  1 1 0  1.2 1 0  1.4 1 0  1.6 1 0  1.8 1 0  2 1 0  2.2 1 0  2.4 1 0  2.6 1 0  2.8 1 0  3 1 0  3.2 1 0  3.4 1 0  3.6 1 0  3.8 1 0  4 1 0  4.2 1 0  4.4 1 0  4.6 1 0  4.8 1 0  5 1 0  5.2 1 0  5.4 1 0  5.6 1 0  5.8 1 0  6 1 0  6.2 1 0  6.4 1 0  6.6 1 0  6.8 1 0  7 1 0  7.2 1 0  7.4 1 0  7.6 1 0  7.8 1 0  8 1 0  8.199999999999999 1 0  8.4 1 0  8.6 1 0  8.800000000000001 1 0  9 1 0  9.199999999999999 1 0  9.4 1 0  9.6 1 0  9.800000000000001 1 0  10 1 0  0 1.2 0  0.2 1.2 0  0.4 1.2 0  0.6 1.2 0  0.8 1.2 0  1 1.2 0  1.2 1.2 0  1.4 1.2 0  1.6 1.2 0  1.8 1.2 0  2 1.2 0  2.2 1.2 0  2.4 1.2 0  2.6 1.2 0  2.8 1.2 0  3 1.2 0  3.2 1.2 0  3.4 1.2 0  3.6 1.2 0  3.8 1.2 0  4 1.2 0  4.2 1.2 0  4.4 1.2 0  4.6 1.2 0  4.8 1.2 0  5 1.2 0  5.2 1.2 0  5.4 1.2 0  5.6 1.2 0  5.8 1.2 0  6 1.2 0  6.2 1.2 0  6.4 1.2 0  6.6 1.2 0  6.8 1.2 0  7 1.2 0  7.2 1.2 0  7.4 1.2 0  7.6 1.2 0  7.8 1.2 0  8 1.2 0  8.199999999999999 1.2 0  8.4 1.2 0  8.6 1.2 0  8.800000000000001 1.2 0  9 1.2 0  9.199999999999999 1.2 0  9.4 1.2 0  9.6 1.2 0  9.800000000000001 1.2 0  10 1.2 0  0 1.4 0  0.2 1.4 0  0.4 1.4 0  0.6 1.4 0  0.8 1.4 0  1 1.4 0  1.2 1.4 0  1.4 1.4 0  1.6 1.4 0  1.8 1.4 0  2 1.4 0  2.2 1.4 0  2.4 1.4 0  2.6 1.4 0  2.8 1.4 0  3 1.4 0  3.2 1.4 0  3.4 1.4 0  3.6 1.4 0  3.8 1.4 0  4 1.4 0  4.2 1.4 0  4.4 1.4 0  4.6 1.4 0  4.8 1.4 0  5 1.4 0  5.2 1.4 0  5.4 1.4 0  5.6 1.4 0  5.8 1.4 0  6 1.4 0  6.2 1.4 0  6.4 1.4 0  6.6 1.4 0  6.8 1.4 0  7 1.4 0  7.2 1.4 0  7.4 1.4 0  7.6 1.4 0  7.8 1.4 0  8 1.4 0  8.199999999999999 1.4 0  8.4 1.4 0  8.6 1.4 0  8.800000000000001 1.4 0  9 1.4 0  9.199999999999999 1.4 0  9.4 1.4 0  9.6 1.4 0  9.800000000000001 1.4 0  10 1.4 0  0 1.6 0  0.2 1.6 0  0.4 1.6 0  0.6 1.6 0  0.8 1.6 0  1 1.6 0  1.2 1.6 0  1.4 1.6 0  1.6 1.6 0  1.8 1.6 0  2 1.6 0  2.2 1.6 0  2.4 1.6 0  2.6 1.6 0  2.8 1.6 0  3 1.6 0  3.2 1.6 0  3.4 1.6 0  3.6 1.6 0  3.8 1.6 0  4 1.6 0  4.2 1.6 0  4.4 1.6 0  4.6 1.6 0  4.8 1.6 0  5 1.6 0  5.2 1.6 0  5.4 1.6 0  5.6 1.6 0  5.8 1.6 0  6 1.6 0  6.2 1.6 0  6.4 1.6 0  6.6 1.6 0  6.8 1.6 0  7 1.6 0  7.2 1.6 0  7.4 1.6 0  7.6 1.6 0  7.8 1.6 0  8 1.6 0  8.199999999999999 1.6 0  8.4 1.6 0  8.6 1.6 0  8.800000000000001 1.6 0  9 1.6 0  9.199999999999999 1.6 0  9.4 1.6 0  9.6 1.6 0  9.800000000000001 1.6 0  10 1.6 0  0 1.8 0  0.2 1.8 0  0.4 1.8 0  0.6 1.8 0  0.8 1.8 0  1 1.8 0  1.2 1.8 0  1.4 1.8 0  1.6 1.8 0  1.8 1.8 0  2 1.8 0  2.2 1.8 0  2.4 1.8 0  2.6 1.8 0  2.8 1.8 0  3 1.8 0  3.2 1.8 0  3.4 1.8 0  3.6 1.8 0  3.8 1.8 0  4 1.8 0  4.2 1.8 0  4.4 1.8 0  4.6 1.8 0  4.8 1.8 0  5 1.8 0  5.2 1.8 0  5.4 1.8 0  5.6 1.8 0  5.8 1.8 0  6 1.8 0  6.2 1.8 0  6.4 1.8 0  6.6 1.8 0  6.8 1.8 0  7 1.8 0  7.2 1.8 0  7.4 1.8 0  7.6 1.8 0  7.8 1.8 0  8 1.8 0  8.199999999999999 1.8 0  8.4 1.8 0  8.6 1.8 0  8.800000000000001 1.8 0  9 1.8 0  9.199999999999999 1.8 0  9.4 1.8 0  9.6 1.8 0  9.800000000000001 1.8 0  10 1.8 0  0 2 0  0.2 2 0  0.4 2 0  0.6 2 0  0.8 2 0  1 2 0  1.2 2 0  1.4 2 0  1.6 2 0  1.8 2 0  2 2 0  2.2 2 0  2.4 2 0  2.6 2 0  2.8 2 0  3 2 0  3.2 2 0  3.4 2 0  3.6 2 0  3.8 2 0  4 2 0  4.2 2 0  4.4 2 0  4.6 2 0  4.8 2 0  5 2 0  5.2 2 0  5.4 2 0  5.6 2 0  5.8 2 0  6 2 0  6.2 2 0  6.4 2 0  6.6 2 0  6.8 2 0  7 2 0  7.2 2 0  7.4 2 0  7.6 2 0  7.8 2 0  8 2 0  8.199999999999999 2 0  8.4 2 0  8.6 2 0  8.800000000000001 2 0  9 2 0  9.199999999999999 2 0  9.4 2 0  9.6 2 0  9.800000000000001 2 0  10 2 0  0 2.2 0  0.2 2.2 0  0.4 2.2 0  0.6 2.2 0  0.8 2.2 0  1 2.2 0  1.2 2.2 0  1.4 2.2 0  1.6 2.2 0  1.8 2.2 0  2 2.2 0  2.2 2.2 0  2.4 2.2 0  2.6 2.2 0  2.8 2.2 0  3 2.2 0  3.2 2.2 0  3.4 2.2 0  3.6 2.2 0  3.8 2.2 0  4 2.2 0  4.2 2.2 0  4.4 2.2 0  4.6 2.2 0  4.8 2.2 0  5 2.2 0  5.2 2.2 0  5.4 2.2 0  5.6 2.2 0  5.8 2.2 0  6 2.2 0  6.2 2.2 0  6.4 2.2 0  6.6 2.2 0  6.8 2.2 0  7 2.2 0  7.2 2.2 0  7.4 2.2 0  7.6 2.2 0  7.8 2.2 0  8 2.2 0  8.199999999999999 2.2 0  8.4 2.2 0  8.6 2.2 0  8.800000000000001 2.2 0  9 2.2 0  9.199999999999999 2.2 0  9.4 2.2 0  9.6 2.2 0  9.800000000000001 2.2 0  10 2.2 0  0 2.4 0  0.2 2.4 0  0.4 2.4 0  0.6 2.4 0  0.8 2.4 0  1 2.4 0  1.2 2.4 0  1.4 2.4 0  1.6 2.4 0  1.8 2.4 0  2 2.4 0  2.2 2.4 0  2.4 2.4 0  2.6 2.4 0  2.8 2.4 0  3 2.4 0  3.2 2.4 0  3.4 2.4 0  3.6 2.4 0  3.8 2.4 0  4 2.4 0  4.2 2.4 0  4.4 2.4 0  4.6 2.4 0  4.8 2.4 0  5 2.4 0  5.2 2.4 0  5.4 2.4 0  5.6 2.4 0  5.8 2.4 0  6 2.4 0  6.2 2.4 0  6.4 2.4 0  6.6 2.4 0  6.8 2.4 0  7 2.4 0  7.2 2.4 0  7.4 2.4 0  7.6 2.4 0  7.8 2.4 0  8 2.4 0  8.199999999999999 2.4 0  8.4 2.4 0  8.6 2.4 0  8.800000000000001 2.4 0  9 2.4 0  9.199999999999999 2.4 0  9.4 2.4 0  9.6 2.4 0  9.800000000000001 2.4 0  10 2.4 0  0 2.6 0  0.2 2.6 0  0.4 2.6 0  0.6 2.6 0  0.8 2.6 0  1 2.6 0  1.2 2.6 0  1.4 2.6 0  1.6 2.6 0  1.8 2.6 0  2 2.6 0  2.2 2.6 0  2.4 2.6 0  2.6 2.6 0  2.8 2.6 0  3 2.6 0  3.2 2.6 0  3.4 2.6 0  3.6 2.6 0  3.8 2.6 0  4 2.6 0  4.2 2.6 0  4.4 2.6 0  4.6 2.6 0  4.8 2.6 0  5 2.6 0  5.2 2.6 0  5.4 2.6 0  5.6 2.6 0  5.8 2.6 0  6 2.6 0  6.2 2.6 0  6.4 2.6 0  6.6 2.6 0  6.8 2.6 0  7 2.6 0  7.2 2.6 0  7.4 2.6 0  7.6 2.6 0  7.8 2.6 0  8 2.6 0  8.199999999999999 2.6 0  8.4 2.6 0  8.6 2.6 0  8.800000000000001 2.6 0  9 2.6 0  9.199999999999999 2.6 0  9.4 2.6 0  9.6 2.6 0  9.800000000000001 2.6 0  10 2.6 0  0 2.8 0  0.2 2.8 0  0.4 2.8 0  0.6 2.8 0  0.8 2.8 0  1 2.8 0  1.2 2.8 0  1.4 2.8 0  1.6 2.8 0  1.8 2.8 0  2 2.8 0  2.2 2.8 0  2.4 2.8 0  2.6 2.8 0  2.8 2.8 0  3 2.8 0  3.2 2.8 0  3.4 2.8 0  3.6 2.8 0  3.8 2.8 0  4 2.8 0  4.2 2.8 0  4.4 2.8 0  4.6 2.8 0  4.8 2.8 0  5 2.8 0  5.2 2.8 0  5.4 2.8 0  5.6 2.8 0  5.8 2.8 0  6 2.8 0  6.2 2.8 0  6.4 2.8 0  6.6 2.8 0  6.8 2.8 0  7 2.8 0  7.2 2.8 0  7.4 2.8 0  7.6 2.8 0  7.8 2.8 0  8 2.8 0  8.199999999999999 2.8 0  8.4 2.8 0  8.6 2.8 0  8.800000000000001 2.8 0  9 2.8 0  9.199999999999999 2.8 0  9.4 2.8 0  9.6 2.8 0  9.800000000000001 2.8 0  10 2.8 0  0 3 0  0.2 3 0  0.4 3 0  0.6 3 0  0.8 3 0  1 3 0  1.2 3 0  1.4 3 0  1.6 3 0  1.8 3 0  2 3 0  2.2 3 0  2.4 3 0  2.6 3 0  2.8 3 0  3 3 0  3.2 3 0  3.4 3 0  3.6 3 0  3.8 3 0  4 3 0  4.2 3 0  4.4 3 0  4.6 3 0  4.8 3 0  5 3 0  5.2 3 0  5.4 3 0  5.6 3 0  5.8 3 0  6 3 0  6.2 3 0  6.4 3 0  6.6 3 0  6.8 3 0  7 3 0  7.2 3 0  7.4 3 0  7.6 3 0  7.8 3 0  8 3 0  8.199999999999999 3 0  8.4 3 0  8.6 3 0  8.800000000000001 3 0  9 3 0  9.199999999999999 3 0  9.4 3 0  9.6 3 0  9.800000000000001 3 0  10 3 0  0 3.2 0  0.2 3.2 0  0.4 3.2 0  0.6 3.2 0  0.8 3.2 0  1 3.2 0  1.2 3.2 0  1.4 3.2 0  1.6 3.2 0  1.8 3.2 0  2 3.2 0  2.2 3.2 0  2.4 3.2 0  2.6 3.2 0  2.8 3.2 0  3 3.2 0  3.2 3.2 0  3.4 3.2 0  3.6 3.2 0  3.8 3.2 0  4 3.2 0  4.2 3.2 0  4.4 3.2 0  4.6 3.2 0  4.8 3.2 0  5 3.2 0  5.2 3.2 0  5.4 3.2 0  5.6 3.2 0  5.8 3.2 0  6 3.2 0  6.2 3.2 0  6.4 3.2 0  6.6 3.2 0  6.8 3.2 0  7 3.2 0  7.2 3.2 0  7.4 3.2 0  7.6 3.2 0  7.8 3.2 0  8 3.2 0  8.199999999999999 3.2 0  8.4 3.2 0  8.6 3.2 0  8.800000000000001 3.2 0  9 3.2 0  9.199999999999999 3.2 0  9.4 3.2 0  9.6 3.2 0  9.800000000000001 3.2 0  10 3.2 0  0 3.4 0  0.2 3.4 0  0.4 3.4 0  0.6 3.4 0  0.8 3.4 0  1 
[...]
<PointData  Scalars="f_11"> 
<DataArray  type="Float64"  Name="f_11"  format="ascii">3.9255464724356361e+00  3.9234176003073018e+00  3.9161631736265465e+00  3.9049380067648594e+00  3.8902383852880780e+00  3.8724543472587607e+00  3.8518791487913489e+00  3.8287396447913675e+00  3.8032122546641891e+00  3.7754356787389614e+00  3.7455212391505097e+00  3.7135617980783513e+00  3.6796396299602061e+00  3.6438334319622689e+00  3.6062245426958417e+00  3.5669023597688705e+00  3.5259688879314250e+00  3.4835423083724386e+00  3.4397594389185606e+00  3.3947769588114869e+00  3.3487713036847255e+00  3.3019371966063589e+00  3.2544848654927914e+00  3.2066360968049770e+00  3.1586193769088546e+00  3.1106644601488185e+00  3.0629967614430291e+00  3.0158319898090529e+00  2.9693714130089055e+00  2.9237980757427708e+00  2.8792741951946210e+00  2.8359398439861989e+00  2.7939129190994274e+00  2.7532903015135779e+00  2.7141500459294097e+00  2.6765544077921239e+00  2.6405535148878592e+00  2.6061895177118104e+00  2.5735010988476819e+00  2.5425282786595811e+00  2.5133175159223620e+00  2.4859271635417088e+00  2.4604334013662559e+00  2.4369368374658018e+00  2.4155700649041099e+00  2.3965066301265083e+00  2.3799724183466071e+00  2.3662603620606215e+00  2.3557596001194230e+00  2.3489634628938627e+00  2.3470254499897298e+00  3.9276358580685020e+00  3.9255075726160782e+00  3.9185415567371713e+00  3.9074597560132496e+00  3.8928692590581857e+00  3.8751579886829242e+00  3.8546303125146517e+00  3.8315166500727167e+00  3.8059955564213106e+00  3.7782065335088375e+00  3.7482608544207703e+00  3.7162507862052130e+00  3.6822576757921048e+00  3.6463591424847994e+00  3.6086354662039066e+00  3.5691751716291531e+00  3.5280797410738969e+00  3.4854673409317787e+00  3.4414754205260589e+00  3.3962620427059802e+00  3.3500058364700513e+00  3.3029045241253896e+00  3.2551720651257572e+00  3.2070345663147988e+00  3.1587252193432995e+00  3.1104786230457826e+00  3.0625249143955244e+00  3.0150841533232868e+00  2.9683613786528213e+00  2.9225426782526540e+00  2.8777925083177571e+00  2.8342523723380069e+00  2.7920408493565696e+00  2.7512548606953082e+00  2.7119719960009201e+00  2.6742536879107188e+00  2.6381490280512336e+00  2.6036990489705789e+00  2.5709413481475951e+00  2.5399149925842339e+00  2.5106657087030624e+00  2.4832514287704273e+00  2.4577483328228489e+00  2.4342576014079724e+00  2.4129132280041810e+00  2.3938914357626420e+00  2.3774221394679502e+00  2.3638097633670987e+00  2.3534417081632433e+00  2.3469225427460985e+00  2.3449701136550671e+00  3.9347945058503480e+00  3.9323761686775129e+00  3.9254079181141952e+00  3.9144027252747642e+00  3.8998714160860359e+00  3.8821992840210386e+00  3.8616830096181038e+00  3.8385503612582763e+00  3.8129765600277961e+00  3.7850973151113423e+00  3.7550196522709975e+00  3.7228312778962427e+00  3.6886088944123694e+00  3.6524256764901439e+00  3.6143579956227065e+00  3.5744913843222141e+00  3.5329256539890723e+00  3.4897790212696758e+00  3.4451910611283965e+00  3.3993242982185095e+00  3.3523642781053713e+00  3.3045180296036931e+00  3.2560109359814677e+00  3.2070821654410411e+00  3.1579789520396790e+00  3.1089501439878151e+00  3.0602395235448832e+00  3.0120794331676954e+00  2.9646852079678534e+00  2.9182508195274046e+00  2.8729459973606710e+00  2.8289149364004573e+00  2.7862765483349698e+00  2.7451260937870119e+00  2.7055379551812222e+00  2.6675692807991385e+00  2.6312642444182943e+00  2.5966587118001083e+00  2.5637851726648719e+00  2.5326778730945465e+00  2.5033781599940164e+00  2.4759401220746242e+00  2.4504366820439660e+00  2.4269663703336812e+00  2.4056611047436269e+00  2.3866954770179851e+00  2.3702983464998622e+00  2.3567678858313910e+00  2.3464902356576314e+00  2.3399747611683175e+00  2.3377337304534946e+00  3.9458643766706563e+00  3.9432997186647190e+00  3.9362472117554352e+00  3.9252357200936991e+00  3.9107143689824788e+00  3.8930429314312862e+00  3.8725031471489406e+00  3.8493122348433331e+00  3.8236363876633277e+00  3.7956026209748099e+00  3.7653092230799245e+00  3.7328351129343917e+00  3.6982483589101820e+00  3.6616140171174698e+00  3.6230013482001659e+00  3.5824903770699956e+00  3.5401776716068971e+00  3.4961811397480056e+00  3.4506435897639758e+00  3.4037347785159522e+00  3.3556516993312302e+00  3.3066169427708347e+00  3.2568750994800282e+00  3.2066873523843906e+00  3.1563246013195614e+00  3.1060596431619203e+00  3.0561590587411991e+00  3.0068755052054716e+00  2.9584410654642452e+00  2.9110621714747533e+00  2.8649164211862765e+00  2.8201513878864102e+00  2.7768853155338298e+00  2.7352094366291309e+00  2.6951915582580570e+00  2.6568805394270942e+00  2.6203113182075031e+00  2.5855102226676361e+00  2.5525003956517685e+00  2.5213072635278189e+00  2.4919640717326779e+00  2.4645175899031093e+00  2.4390341566313789e+00  2.4156062929933024e+00  2.3943601730431983e+00  2.3754642957277934e+00  2.3591397198903143e+00  2.3456721400018727e+00  2.3354242950482766e+00  2.3288457707809167e+00  2.3264663831718742e+00  3.9603475842344427e+00  3.9576696122778166e+00  3.9505470603751203e+00  3.9395078089344806e+00  3.9249739002716244e+00  3.9072834555667355e+00  3.8867003161780764e+00  3.8634268904519837e+00  3.8376158422938564e+00  3.8093810435345081e+00  3.7788076365886036e+00  3.7459613621714039e+00  3.7108973214534613e+00  3.6736682878070694e+00  3.6343326016126882e+00  3.5929615814637312e+00  3.5496462766412900e+00  3.5045032804389780e+00  3.4576792382441384e+00  3.4093536389255021e+00  3.3597394946932093e+00  3.3090816101160354e+00  3.2576523205162893e+00  3.2057448304015796e+00  3.1536645698297261e+00  3.1017192591290041e+00  3.0502085721094225e+00  2.9994143659284540e+00  2.9495923780836537e+00  2.9009660875378240e+00  2.8537231400213430e+00  2.8080144094395441e+00  2.7639554722349455e+00  2.7216300584613871e+00  2.6810949357992184e+00  2.6423856781095605e+00  2.6055228461625664e+00  2.5705182333332899e+00  2.5373809721616758e+00  2.5061234344233316e+00  2.4767669729748105e+00  2.4493476423484770e+00  2.4239220977500096e+00  2.4005739129680257e+00  2.3794205788344587e+00  2.3606214441202513e+00  2.3443868034335487e+00  2.3309879968128184e+00  2.3207690230756395e+00  2.3141546676792450e+00  2.3116748385128969e+00  3.9778519268655317e+00  3.9750956797386854e+00  3.9679197409290428e+00  3.9568564525005852e+00  3.9423086208608082e+00  3.9245965765701381e+00  3.9039659297167604e+00  3.8806016769791749e+00  3.8546393624069921e+00  3.8261756188862672e+00  3.7952780125621812e+00  3.7619944189929662e+00  3.7263621129859805e+00  3.6884166934611771e+00  3.6482008757550526e+00  3.6057730636076646e+00  3.5612154702102221e+00  3.5146414058142890e+00  3.4662012114187615e+00  3.4160862257812123e+00  3.3645301631730642e+00  3.3118073850142773e+00  3.2582277870105054e+00  3.2041283833055316e+00  3.1498621027622136e+00  3.0957847389311994e+00  3.0422413175692848e+00  2.9895532785704946e+00  2.9380077688497330e+00  2.8878500242459455e+00  2.8392793539636072e+00  2.7924487366396198e+00  2.7474675993834623e+00  2.7044070564747207e+00  2.6633067628345297e+00  2.6241825741461811e+00  2.5870343557641036e+00  2.5518534908425998e+00  2.5186298546709760e+00  2.4873582122790117e+00  2.4580441423518495e+00  2.4307096889403708e+00  2.4053989990264713e+00  2.3821842282823229e+00  2.3611719968720779e+00  2.3425106635271207e+00  2.3263986771297729e+00  2.3130939251631348e+00  2.3029264211014855e+00  2.2963045168653506e+00  2.2937637730424738e+00  3.9980814916521368e+00  3.9952708089264481e+00  3.9880655756078109e+00  3.9769964808476614e+00  3.9624506243469204e+00  3.9447317552502179e+00  3.9240669006192044e+00  3.9006216604466628e+00  3.8745113625535561e+00  3.8458115019736470e+00  3.8145675263292782e+00  3.7808043488307437e+00  3.7445358585150594e+00  3.7057746094524679e+00  3.6645417593041030e+00  3.6208771738789602e+00  3.5748494196682827e+00  3.5265651430685541e+00  3.4761771120336746e+00  3.4238900198671338e+00  3.3699630820522888e+00  3.3147085570532577e+00  3.2584856331814973e+00  3.2016896441709171e+00  3.1447372414225931e+00  3.0880488329269613e+00  3.0320301324565171e+00  2.9770548955014129e+00  2.9234507676225840e+00  2.8714896594585912e+00  2.8213833167533808e+00  2.7732839593808425e+00  2.7272892017061903e+00  2.6834500584556835e+00  2.6417807201261883e+00  2.6022689073147047e+00  2.5648858963834837e+00  2.5295956531107828e+00  2.4963628383947367e+00  2.4651597133484473e+00  2.4359721528767326e+00  2.4088050815594104e+00  2.3836876899029491e+00  2.3606787934413869e+00  2.3398726801119838e+00  2.3214057799685666e+00  2.3054645331660630e+00  2.2922944797004026e+00  2.2822139272704178e+00  2.2756190347184684e+00  2.2730451562001961e+00  4.0208063117533310e+00  4.0179613500025422e+00  4.0107532526671816e+00  3.9997066056762245e+00  3.9851926657671024e+00  3.9674981136473009e+00  3.9468303766014126e+00  3.9233336418694091e+00  3.8971000336029151e+00  3.8681800061440397e+00  3.8365921067965489e+00  3.8023326475802430e+00  3.7653856850558172e+00  3.7257336012236411e+00  3.6833684447102812e+00  3.6383039975842459e+00  3.5905882699857621e+00  3.5403157989188889e+00  3.4876387719300239e+00  3.4327756761507784e+00  3.3760159842242130e+00  3.3177194418741447e+00  3.2583089096968543e+00  3.1982564614219537e+00  3.1380634716445184e+00  3.0782365356183101e+00  3.0192619666019884e+00  2.9615820341214287e+00  2.9055758788203359e+00  2.8515472003628104e+00  2.7997195906009815e+00  2.7502391085596840e+00  2.7031826814159858e+00  2.6585703579550861e+00  2.6163793669693662e+00  2.5765582387890755e+00  2.5390397647148495e+00  2.5037521311051538e+00  2.4706280535891727e+00  2.4396120932904486e+00  2.4106665523245536e+00  2.3837764429501256e+00  2.3589540397672870e+00  2.3362434946391475e+00  2.3157259503067511e+00  2.2975255679386377e+00  2.2818169417946672e+00  2.2688339624752016e+00  2.2588840092629980e+00  2.2523517791158487e+00  2.2497683704313940e+00  4.0458464566109864e+00  4.0429850985039781e+00  4.0358035352189656e+00  4.0248160048405461e+00  4.0103765591843041e+00  3.9927533673847511e+00  3.9721326857842727e+00  3.9486350871322093e+00  3.9223264568517924e+00  3.8932282001815448e+00  3.8613268702753207e+00  3.8265839051381181e+00  3.7889460312130776e+00  3.7483567908926836e+00  3.7047695094372832e+00  3.6581617873128760e+00  3.6085512610703088e+00  3.5560119121976612e+00  3.5006896491709281e+00  3.4428153278619029e+00  3.3827129562491445e+00  3.3208007444219652e+00  3.2575830996035244e+00  3.1936327287637774e+00  3.1295636162301861e+00  3.0659974757105384e+00  3.0035278362174549e+00  2.9426866895734780e+00  2.8839182846143241e+00  2.8275632470748526e+00  2.7738541511558927e+00  2.7229215829250983e+00  2.6748081739827989e+00  2.6294873477300440e+00  2.5868836013916403e+00  2.5468918079723926e+00  2.5093939432010481e+00  2.4742725449361114e+00  2.4414209247063843e+00  2.4107506121391178e+00  2.3821967420390555e+00  2.3557221503205334e+00  2.3313208974631823e+00  2.3090218467917145e+00  2.2888928329151050e+00  2.2710459042980449e+00  2.2556441663236364e+00  2.2429102647885721e+00  2.2331406532305045e+00  2.2267082016283517e+00  2.2241360006567223e+00  4.0730593903060379e+00  4.0701985609620843e+00  4.0630763091159512e+00  4.0521925659390314e+00  4.0378823263900987e+00  4.0203933965569663e+00  3.9998890220437899e+00  3.9764638707813451e+00  3.9501545443423867e+00  3.9209493196413656e+00  3.8887973821956705e+00  3.8536183855142805e+00  3.8153130843058314e+00  3.7737757261731395e+00  3.7289087659688178e+00  3.6806402232812325e+00  3.6289435833632258e+00  3.5738595078091953e+00  3.5155177841902288e+00  3.4541569994213703e+00  3.3901385813113425e+00  3.3239514415122091e+00  3.2562038421501414e+00  3.1876005669499676e+00  3.1189059762660944e+00  3.0508965906422580e+00  2.9843096001357901e+00  2.9197951443365464e+00  2.8578796998629237e+00  2.7989455035824826e+00  2.7432274188740999e+00  2.6908251795297375e+00  2.6417265264598710e+00  2.5958358509350599e+00  2.5530034395083909e+00  2.5130517603881186e+00  2.4757968393146763e+00  2.4410641903017636e+00  2.4086997655157827e+00  2.3785769382577855e+00  2.3506007198457333e+00  2.3247103624376928e+00  2.3008813341200161e+00  2.2791274587005383e+00  2.2595038447026710e+00  2.2421111261028219e+00  2.2271015464906574e+00  2.2146868684411296e+00  2.2051523551925416e+00  2.1988582835368526e+00  2.1963163341626779e+00  4.1023297204710669e+00  4.0994862232918718e+00  4.0924598539853347e+00  4.0817325455086797e+00  4.0676182578202988e+00  4.0503425415986323e+00  4.0300438192419685e+00  4.0067886937900337e+00  3.9805816120979700e+00  3.9513737527681507e+00  3.9190714565004057e+00  3.8835451846967315e+00  3.8446399790794428e+00  3.8021884103388168e+00  3.7560269528089276e+00  3.7060165123116917e+00  3.6520673684011991e+00  3.5941679751950391e+00  3.5324158520390818e+00  3.4670472619514077e+00  3.3984607974826182e+00  3.3272288893313182e+00  3.2540913205131878e+00  3.1799267047652999e+00  3.1057017502001676e+00  3.0324033173675793e+00  2.9609632423952208e+00  2.8921886960206860e+00  2.8267101198422222e+00  2.7649545548989600e+00  2.7071459898578114e+00  2.6533284658907039e+00  2.6034039316451292e+00  2.5571759243002212e+00  2.5143915694403911e+00  2.4747770272610903e+00  2.4380642625254891e+00  2.4040091730532591e+00  2.3724024284007244e+00  2.3430749263928559e+00  2.3158997988147485e+00  2.2907926315054801e+00  2.2677111971998660e+00  2.2466556509861570e+00  2.2276698663013463e+00  2.2108444241666709e+00  2.1963217404428446e+00  2.1843032257598636e+00  2.1750627148295618e+00  2.1689470279564875e+00  2.1664533326588078e+00  4.1335603842729904e+00  4.1307514355255721e+00  4.1238615951365780e+00  4.1133513406065427e+00  4.0995117324077315e+00  4.0825443978878591e+00  4.0625614368903555e+00  4.0395996424659968e+00  4.0136289085919028e+00  3.9845597815277709e+00  3.9522505286167231e+00  3.9165148606528990e+00  3.8771315361127905e+00  3.8338572205043766e+00  3.7864440653969473e+00  3.7346633847791173e+00  3.6783363808456349e+00  3.6173719130537285e+00  3.5518096465968316e+00  3.4818645361346334e+00  3.4079657881156940e+00  3.3307809663244869e+00  3.2512150109865541e+00  3.1703760312477551e+00  3.0895055876243047e+00  3.0098800403921691e+00  2.9326986793628169e+00  2.8589799182202018e+00  2.7894858637602282e+00  2.7246879539101445e+00  2.6647751842872127e+00  2.6096962601827958e+00  2.5592212787285802e+00  2.5130081404968245e+00  2.4706623778647709e+00  2.4317841104437377e+00  2.3960004190969930e+00  2.3629845615915537e+00  2.3324650066066450e+00  2.3042276055684425e+00  2.2781138528337510e+00  2.2540175246092873e+00  2.2318813082929938e+00  2.2116944749415524e+00  2.1934922520208651e+00  2.1773573257571810e+00  2.1634238476802663e+00  2.1518837202538448e+00  2.1429992880573825e+00  2.1371031091741171e+00  2.1346749555460129e+00  4.1666648939269582e+00  4.1639084476723092e+00  4.1571999203044276e+00  4.1469751190194728e+00  4.1335006279958781e+00  4.1169529292237392e+00  4.0974168914199378e+00  4.0748984957834393e+00  4.0493315508093461e+00  4.0205833457060169e+00  3.9884596525761427e+00  3.9527103410372919e+00  3.9130370965725514e+00  3.8691050686804931e+00  3.8205606090964337e+00  3.7670574419642420e+00  3.7082933997147554e+00  3.6440589171409656e+00  3.5742964067384779e+00  3.4991661563360146e+00  3.4191096344443466e+00  3.3348960386511188e+00  3.2476346771124849e+00  3.1587372345148488e+00  3.0698224890424552e+00  2.9825712387661829e+00  2.8985564031825146e+00  2.8190846658136266e+00  2.7450849639244117e+00  2.6770649820112156e+00  2.6151360082041393e+00  2.5590885656545925e+00  2.5084927037560889e+00  2.4627984497992861e+00  2.4214198506508500e+00  2.3837953707181452e+00  2.3494247698315949e+00  2.3178867839137487e+00  2.2888433574860483e+00  2.2620358328538934e+00  2.2372773489089020e+00  2.2144443989007354e+00  2.1934693809430010e+00  2.1743351638664445e+00  2.1570721756259310e+00  2.1417582539631961e+00  2.1285214448549845e+00  2.1175453636587034e+00  2.1090810399044337e+00  2.1034460813081974e+00  2.1011001519331352e+00  4.2015604560595108e+00  4.1988753519242481e+00  4.1923968507087190e+00  4.1825331488646018e+00  4.1695252069789008e+00  4.1535237795461564e+00  4.1345864535174597e+00  4.1126884926962033e+00  4.0877274188859394e+00  4.0595261592659231e+00  4.0278351563901937e+00  3.9923347693562210e+00  3.9526396778723658e+00  3.9083075840127082e+00  3.8588552049197187e+00  3.8037852095935851e+00  3.7426280705746788e+00  3.6750022452467737e+00  3.6006939088080805e+00  3.5197527993213571e+00  3.4325931850845652e+00  3.3400793978878212e+00  3.2435669591543581e+00  3.1448687122269239e+00  3.0461266565792720e+00  2.9495961191551809e+00  2.8573819916722814e+00  2.7711908444021014e+00  2.6921624089219578e+00  2.6208166665112396e+00  2.5571127915973313e+00  2.5005839295100314e+00  2.4504999886013463e+00  2.4060182202784586e+00  2.3662985803199712e+00  2.3305777096512377e+00  2.2982065230501711e+00  2.2686612188773605e+00  2.2415378530787717e+00  2.2165386987250275e+00  2.1934560875758922e+00  2.1721571851796595e+00  2.1525714998375980e+00  2.1346818700877628e+00  2.1185190899736841e+00  2.1041600811374117e+00  2.0917295157518523e+00  2.0814043007180847e+00  2.0734245486672283e+00  2.0680923468247321e+00  2.0658446678860827e+00  4.2381618928020099e+00  4.2355678399096703e+00  4.2293714767926938e+00  4.2199507666985632e+00  4.2075204419678585e+00  4.1922057492606886e+00  4.1740380409272015e+00  4.1529634018437989e+00  4.1288446986402461e+00  4.1014616248028641e+00  4.0705090369371533e+00  4.0355948558717172e+00  3.9962393394462268e+00  3.9518783991326987e+00  3.9018748108155683e+00  3.8455425645567174e+00  3.7821909029059566e+00  3.7111951152688416e+00  3.6320996372767440e+00  3.5447536570175422e+00  3.4494684618911449e+00  3.3471689064197712e+00  3.2394924761428943e+00  3.1287785604598271e+00  3.0179022194247715e+00  2.9099501068158955e+00  2.8078010915574838e+00  2.7137268242669275e+00  2.6291307911571624e+00  2.5544898444162403e+00  2.4894823913144832e+00  2.4332283322732420e+00  2.3845524954277990e+00  2.3422068361734665e+00  2.3050228164528934e+00  2.2719944938499887e+00  2.2423080801000559e+00  2.2153373149807996e+00  2.1906211444819124e+00  2.1678352257740436e+00  2.1467641324052753e+00  2.1272776970200420e+00  2.1093127555739977e+00  2.0928603688918876e+00  2.0779580660310195e+00  2.0646865223280537e+00  2.0531702003565573e+00  2.0435811212416750e+00  2.0361490187538753e+00  2.0311599593776410e+00  2.0290257295129344e+00  4.2763763710383671e+00  4.2738937717915153e+00  4.2680341641807154e+00  4.2591430162560888e+00  4.2474088445264666e+00  4.2329325202253907e+00  4.2157214866112120e+00  4.1956959257471516e+00  4.1726879855001497e+00  4.1464382291911965e+00  4.1165893780016658e+00  4.0826783784793550e+00  4.0441284589851634e+00  4.0002439593968164e+00  3.9502124293906409e+00  3.8931208538704061e+00  3.8279957243820637e+00  3.7538793417558525e+00  3.6699555213887716e+00  3.5757336355516447e+00  3.4712861947090734e+00  3.3575080998045292e+00  3.2363272928976978e+00  3.1107623051151365e+00  2.9847237682493262e+00  2.8625256371121766e+00  2.7482008875572679e+00  2.6448365191439085e+00  2.5541581635317696e+00  2.4764819517082639e+00  2.4109836971771839e+00  2.3561269373758802e+00  2.3100861901957073e+00  2.2710658844115303e+00  2.2374885515097662e+00  2.2080727360600982e+00  2.1818375803233261e+00  2.1580684076559109e+00  2.1362677376267931e+00  2.1161061354038671e+00  2.0973798505651877e+00  2.0799775937936333e+00  2.0638563693434864e+00  2.0490252436848984e+00  2.0355356735640848e+00  2.0234771503810092e+00  2.0129772407784006e+00  2.0042049318532320e+00  1.9973801052678777e+00  1.9927722847055731e+00  1.9907656199081221e+00  4.3160990041610274e+00  4.3137486203347244e+00  4.3082816113842446e+00  4.3000090767864592e+00  4.2890939663345016e+00  4.2756148533756431e+00  4.2595589528050271e+00  4.2408257292961693e+00  4.2192231989522222e+00  4.1944605142277593e+00  4.1661365291315908e+00  4.1337248900826919e+00  4.0965568117216105e+00  4.0538039405903774e