<?xml version="1.0"?>
<VTKFile type="UnstructuredGrid"  version="0.1"  >
<UnstructuredGrid>
<Piece  NumberOfPoints="5101" NumberOfCells="10000">
<Points>
<DataArray  type="Float64"  NumberOfComponents="3"  format="ascii">0 0 0  0.2 0 0  0.4 0 0  0.6 0 0  0.8 0 0  1 0 0  1.2 0 0  1.4 0 0  1.6 0 0  1.8 0 0  2 0 0  2.2 0 0  2.4 0 0  2.6 0 0  2.8 0 0  3 0 0  3.2 0 0  3.4 0 0  3.6 0 0  3.8 0 0  4 0 0  4.2 0 0  4.4 0 0  4.6 0 0  4.8 0 0  5 0 0  5.2 0 0  5.4 0 0  5.6 0 0  5.8 0 0  6 0 0  6.2 0 0  6.4 0 0  6.6 0 0  6.8 0 0  7 0 0  7.2 0 0  7.4 0 0  7.6 0 0  7.8 0 0  8 0 0  8.199999999999999 0 0  8.4 0 0  8.6 0 0  8.800000000000001 0 0  9 0 0  9.199999999999999 0 0  9.4 0 0  9.6 0 0  9.800000000000001 0 0  10 0 0  0 0.2 0  0.2 0.2 0  0.4 0.2 0  0.6 0.2 0  0.8 0.2 0  1 0.2 0  1.2 0.2 0  1.4 0.2 0  1.6 0.2 0  1.8 0.2 0  2 0.2 0  2.2 0.2 0  2.4 0.2 0  2.6 0.2 0  2.8 0.2 0  3 0.2 0  3.2 0.2 0  3.4 0.2 0  3.6 0.2 0  3.8 0.2 0  4 0.2 0  4.2 0.2 0  4.4 0.2 0  4.6 0.2 0  4.8 0.2 0  5 0.2 0  5.2 0.2 0  5.4 0.2 0  5.6 0.2 0  5.8 0.2 0  6 0.2 0  6.2 0.2 0  6.4 0.2 0  6.6 0.2 0  6.8 0.2 0  7 0.2 0  7.2 0.2 0  7.4 0.2 0  7.6 0.2 0  7.8 0.2 0  8 0.2 0  8.199999999999999 0.2 0  8.4 0.2 0  8.6 0.2 0  8.800000000000001 0.2 0  9 0.2 0  9.199999999999999 0.2 0  9.4 0.2 0  9.6 0.2 0  9.800000000000001 0.2 0  10 0.2 0  0 0.4 0  0.2 0.4 0  0.4 0.4 0  0.6 0.4 0  0.8 0.4 0  1 0.4 0  1.2 0.4 0  1.4 0.4 0  1.6 0.4 0  1.8 0.4 0  2 0.4 0  2.2 0.4 0  2.4 0.4 0  2.6 0.4 0  2.8 0.4 0  3 0.4 0  3.2 0.4 0  3.4 0.4 0  3.6 0.4 0  3.8 0.4 0  4 0.4 0  4.2 0.4 0  4.4 0.4 0  4.6 0.4 0  4.8 0.4 0  5 0.4 0  5.2 0.4 0  5.4 0.4 0  5.6 0.4 0  5.8 0.4 0  6 0.4 0  6.2 0.4 0  6.4 0.4 0  6.6 0.4 0  6.8 0.4 0  7 0.4 0  7.2 0.4 0  7.4 0.4 0  7.6 0.4 0  7.8 0.4 0  8 0.4 0  8.199999999999999 0.4 0  8.4 0.4 0  8.6 0.4 0  8.800000000000001 0.4 0  9 0.4 0  9.199999999999999 0.4 0  9.4 0.4 0  9.6 0.4 0  9.800000000000001 0.4 0  10 0.4 0  0 0.6 0  0.2 0.6 0  0.4 0.6 0  0.6 0.6 0  0.8 0.6 0  1 0.6 0  1.2 0.6 0  1.4 0.6 0  1.6 0.6 0  1.8 0.6 0  2 0.6 0  2.2 0.6 0  2.4 0.6 0  2.6 0.6 0  2.8 0.6 0  3 0.6 0  3.2 0.6 0  3.4 0.6 0  3.6 0.6 0  3.8 0.6 0  4 0.6 0  4.2 0.6 0  4.4 0.6 0  4.6 0.6 0  4.8 0.6 0  5 0.6 0  5.2 0.6 0  5.4 0.6 0  5.6 0.6 0  5.8 0.6 0  6 0.6 0  6.2 0.6 0  6.4 0.6 0  6.6 0.6 0  6.8 0.6 0  7 0.6 0  7.2 0.6 0  7.4 0.6 0  7.6 0.6 0  7.8 0.6 0  8 0.6 0  8.199999999999999 0.6 0  8.4 0.6 0  8.6 0.6 0  8.800000000000001 0.6 0  9 0.6 0  9.199999999999999 0.6 0  9.4 0.6 0  9.6 0.6 0  9.800000000000001 0.6 0  10 0.6 0  0 0.8 0  0.2 0.8 0  0.4 0.8 0  0.6 0.8 0  0.8 0.8 0  1 0.8 0  1.2 0.8 0  1.4 0.8 0  1.6 0.8 0  1.8 0.8 0  2 0.8 0  2.2 0.8 0  2.4 0.8 0  2.6 0.8 0  2.8 0.8 0  3 0.8 0  3.2 0.8 0  3.4 0.8 0  3.6 0.8 0  3.8 0.8 0  4 0.8 0  4.2 0.8 0  4.4 0.8 0  4.6 0.8 0  4.8 0.8 0  5 0.8 0  5.2 0.8 0  5.4 0.8 0  5.6 0.8 0  5.8 0.8 0  6 0.8 0  6.2 0.8 0  6.4 0.8 0  6.6 0.8 0  6.8 0.8 0  7 0.8 0  7.2 0.8 0  7.4 0.8 0  7.6 0.8 0  7.8 0.8 0  8 0.8 0  8.199999999999999 0.8 0  8.4 0.8 0  8.6 0.8 0  8.800000000000001 0.8 0  9 0.8 0  9.199999999999999 0.8 0  9.4 0.8 0  9.6 0.8 0  9.800000000000001 0.8 0  10 0.8 0  0 1 0  0.2 1 0  0.4 1 0  0.6 1 0  0.8 1 0  1 1 0  1.2 1 0  1.4 1 0  1.6 1 0  1.8 1 0  2 1 0  2.2 1 0  2.4 1 0  2.6 1 0  2.8 1 0  3 1 0  3.2 1 0  3.4 1 0  3.6 1 0  3.8 1 0  4 1 0  4.2 1 0  4.4 1 0  4.6 1 0  4.8 1 0  5 1 0  5.2 1 0  5.4 1 0  5.6 1 0  5.8 1 0  6 1 0  6.2 1 0  6.4 1 0  6.6 1 0  6.8 1 0  7 1 0  7.2 1 0  7.4 1 0  7.6 1 0  7.8 1 0  8 1 0  8.199999999999999 1 0  8.4 1 0  8.6 1 0  8.800000000000001 1 0  9 1 0  9.199999999999999 1 0  9.4 1 0  9.6 1 0  9.800000000000001 1 0  10 1 0  0 1.2 0  0.2 1.2 0  0.4 1.2 0  0.6 1.2 0  0.8 1.2 0  1 1.2 0  1.2 1.2 0  1.4 1.2 0  1.6 1.2 0  1.8 1.2 0  2 1.2 0  2.2 1.2 0  2.4 1.2 0  2.6 1.2 0  2.8 1.2 0  3 1.2 0  3.2 1.2 0  3.4 1.2 0  3.6 1.2 0  3.8 1.2 0  4 1.2 0  4.2 1.2 0  4.4 1.2 0  4.6 1.2 0  4.8 1.2 0  5 1.2 0  5.2 1.2 0  5.4 1.2 0  5.6 1.2 0  5.8 1.2 0  6 1.2 0  6.2 1.2 0  6.4 1.2 0  6.6 1.2 0  6.8 1.2 0  7 1.2 0  7.2 1.2 0  7.4 1.2 0  7.6 1.2 0  7.8 1.2 0  8 1.2 0  8.199999999999999 1.2 0  8.4 1.2 0  8.6 1.2 0  8.800000000000001 1.2 0  9 1.2 0  9.199999999999999 1.2 0  9.4 1.2 0  9.6 1.2 0  9.800000000000001 1.2 0  10 1.2 0  0 1.4 0  0.2 1.4 0  0.4 1.4 0  0.6 1.4 0  0.8 1.4 0  1 1.4 0  1.2 1.4 0  1.4 1.4 0  1.6 1.4 0  1.8 1.4 0  2 1.4 0  2.2 1.4 0  2.4 1.4 0  2.6 1.4 0  2.8 1.4 0  3 1.4 0  3.2 1.4 0  3.4 1.4 0  3.6 1.4 0  3.8 1.4 0  4 1.4 0  4.2 1.4 0  4.4 1.4 0  4.6 1.4 0  4.8 1.4 0  5 1.4 0  5.2 1.4 0  5.4 1.4 0  5.6 1.4 0  5.8 1.4 0  6 1.4 0  6.2 1.4 0  6.4 1.4 0  6.6 1.4 0  6.8 1.4 0  7 1.4 0  7.2 1.4 0  7.4 1.4 0  7.6 1.4 0  7.8 1.4 0  8 1.4 0  8.199999999999999 1.4 0  8.4 1.4 0  8.6 1.4 0  8.800000000000001 1.4 0  9 1.4 0  9.199999999999999 1.4 0  9.4 1.4 0  9.6 1.4 0  9.800000000000001 1.4 0  10 1.4 0  0 1.6 0  0.2 1.6 0  0.4 1.6 0  0.6 1.6 0  0.8 1.6 0  1 1.6 0  1.2 1.6 0  1.4 1.6 0  1.6 1.6 0  1.8 1.6 0  2 1.6 0  2.2 1.6 0  2.4 1.6 0  2.6 1.6 0  2.8 1.6 0  3 1.6 0  3.2 1.6 0  3.4 1.6 0  3.6 1.6 0  3.8 1.6 0  4 1.6 0  4.2 1.6 0  4.4 1.6 0  4.6 1.6 0  4.8 1.6 0  5 1.6 0  5.2 1.6 0  5.4 1.6 0  5.6 1.6 0  5.8 1.6 0  6 1.6 0  6.2 1.6 0  6.4 1.6 0  6.6 1.6 0  6.8 1.6 0  7 1.6 0  7.2 1.6 0  7.4 1.6 0  7.6 1.6 0  7.8 1.6 0  8 1.6 0  8.199999999999999 1.6 0  8.4 1.6 0  8.6 1.6 0  8.800000000000001 1.6 0  9 1.6 0  9.199999999999999 1.6 0  9.4 1.6 0  9.6 1.6 0  9.800000000000001 1.6 0  10 1.6 0  0 1.8 0  0.2 1.8 0  0.4 1.8 0  0.6 1.8 0  0.8 1.8 0  1 1.8 0  1.2 1.8 0  1.4 1.8 0  1.6 1.8 0  1.8 1.8 0  2 1.8 0  2.2 1.8 0  2.4 1.8 0  2.6 1.8 0  2.8 1.8 0  3 1.8 0  3.2 1.8 0  3.4 1.8 0  3.6 1.8 0  3.8 1.8 0  4 1.8 0  4.2 1.8 0  4.4 1.8 0  4.6 1.8 0  4.8 1.8 0  5 1.8 0  5.2 1.8 0  5.4 1.8 0  5.6 1.8 0  5.8 1.8 0  6 1.8 0  6.2 1.8 0  6.4 1.8 0  6.6 1.8 0  6.8 1.8 0  7 1.8 0  7.2 1.8 0  7.4 1.8 0  7.6 1.8 0  7.8 1.8 0  8 1.8 0  8.199999999999999 1.8 0  8.4 1.8 0  8.6 1.8 0  8.800000000000001 1.8 0  9 1.8 0  9.199999999999999 1.8 0  9.4 1.8 0  9.6 1.8 0  9.800000000000001 1.8 0  10 1.8 0  0 2 0  0.2 2 0  0.4 2 0  0.6 2 0  0.8 2 0  1 2 0  1.2 2 0  1.4 2 0  1.6 2 0  1.8 2 0  2 2 0  2.2 2 0  2.4 2 0  2.6 2 0  2.8 2 0  3 2 0  3.2 2 0  3.4 2 0  3.6 2 0  3.8 2 0  4 2 0  4.2 2 0  4.4 2 0  4.6 2 0  4.8 2 0  5 2 0  5.2 2 0  5.4 2 0  5.6 2 0  5.8 2 0  6 2 0  6.2 2 0  6.4 2 0  6.6 2 0  6.8 2 0  7 2 0  7.2 2 0  7.4 2 0  7.6 2 0  7.8 2 0  8 2 0  8.199999999999999 2 0  8.4 2 0  8.6 2 0  8.800000000000001 2 0  9 2 0  9.199999999999999 2 0  9.4 2 0  9.6 2 0  9.800000000000001 2 0  10 2 0  0 2.2 0  0.2 2.2 0  0.4 2.2 0  0.6 2.2 0  0.8 2.2 0  1 2.2 0  1.2 2.2 0  1.4 2.2 0  1.6 2.2 0  1.8 2.2 0  2 2.2 0  2.2 2.2 0  2.4 2.2 0  2.6 2.2 0  2.8 2.2 0  3 2.2 0  3.2 2.2 0  3.4 2.2 0  3.6 2.2 0  3.8 2.2 0  4 2.2 0  4.2 2.2 0  4.4 2.2 0  4.6 2.2 0  4.8 2.2 0  5 2.2 0  5.2 2.2 0  5.4 2.2 0  5.6 2.2 0  5.8 2.2 0  6 2.2 0  6.2 2.2 0  6.4 2.2 0  6.6 2.2 0  6.8 2.2 0  7 2.2 0  7.2 2.2 0  7.4 2.2 0  7.6 2.2 0  7.8 2.2 0  8 2.2 0  8.199999999999999 2.2 0  8.4 2.2 0  8.6 2.2 0  8.800000000000001 2.2 0  9 2.2 0  9.199999999999999 2.2 0  9.4 2.2 0  9.6 2.2 0  9.800000000000001 2.2 0  10 2.2 0  0 2.4 0  0.2 2.4 0  0.4 2.4 0  0.6 2.4 0  0.8 2.4 0  1 2.4 0  1.2 2.4 0  1.4 2.4 0  1.6 2.4 0  1.8 2.4 0  2 2.4 0  2.2 2.4 0  2.4 2.4 0  2.6 2.4 0  2.8 2.4 0  3 2.4 0  3.2 2.4 0  3.4 2.4 0  3.6 2.4 0  3.8 2.4 0  4 2.4 0  4.2 2.4 0  4.4 2.4 0  4.6 2.4 0  4.8 2.4 0  5 2.4 0  5.2 2.4 0  5.4 2.4 0  5.6 2.4 0  5.8 2.4 0  6 2.4 0  6.2 2.4 0  6.4 2.4 0  6.6 2.4 0  6.8 2.4 0  7 2.4 0  7.2 2.4 0  7.4 2.4 0  7.6 2.4 0  7.8 2.4 0  8 2.4 0  8.199999999999999 2.4 0  8.4 2.4 0  8.6 2.4 0  8.800000000000001 2.4 0  9 2.4 0  9.199999999999999 2.4 0  9.4 2.4 0  9.6 2.4 0  9.800000000000001 2.4 0  10 2.4 0  0 2.6 0  0.2 2.6 0  0.4 2.6 0  0.6 2.6 0  0.8 2.6 0  1 2.6 0  1.2 2.6 0  1.4 2.6 0  1.6 2.6 0  1.8 2.6 0  2 2.6 0  2.2 2.6 0  2.4 2.6 0  2.6 2.6 0  2.8 2.6 0  3 2.6 0  3.2 2.6 0  3.4 2.6 0  3.6 2.6 0  3.8 2.6 0  4 2.6 0  4.2 2.6 0  4.4 2.6 0  4.6 2.6 0  4.8 2.6 0  5 2.6 0  5.2 2.6 0  5.4 2.6 0  5.6 2.6 0  5.8 2.6 0  6 2.6 0  6.2 2.6 0  6.4 2.6 0  6.6 2.6 0  6.8 2.6 0  7 2.6 0  7.2 2.6 0  7.4 2.6 0  7.6 2.6 0  7.8 2.6 0  8 2.6 0  8.199999999999999 2.6 0  8.4 2.6 0  8.6 2.6 0  8.800000000000001 2.6 0  9 2.6 0  9.199999999999999 2.6 0  9.4 2.6 0  9.6 2.6 0  9.800000000000001 2.6 0  10 2.6 0  0 2.8 0  0.2 2.8 0  0.4 2.8 0  0.6 2.8 0  0.8 2.8 0  1 2.8 0  1.2 2.8 0  1.4 2.8 0  1.6 2.8 0  1.8 2.8 0  2 2.8 0  2.2 2.8 0  2.4 2.8 0  2.6 2.8 0  2.8 2.8 0  3 2.8 0  3.2 2.8 0  3.4 2.8 0  3.6 2.8 0  3.8 2.8 0  4 2.8 0  4.2 2.8 0  4.4 2.8 0  4.6 2.8 0  4.8 2.8 0  5 2.8 0  5.2 2.8 0  5.4 2.8 0  5.6 2.8 0  5.8 2.8 0  6 2.8 0  6.2 2.8 0  6.4 2.8 0  6.6 2.8 0  6.8 2.8 0  7 2.8 0  7.2 2.8 0  7.4 2.8 0  7.6 2.8 0  7.8 2.8 0  8 2.8 0  8.199999999999999 2.8 0  8.4 2.8 0  8.6 2.8 0  8.800000000000001 2.8 0  9 2.8 0  9.199999999999999 2.8 0  9.4 2.8 0  9.6 2.8 0  9.800000000000001 2.8 0  10 2.8 0  0 3 0  0.2 3 0  0.4 3 0  0.6 3 0  0.8 3 0  1 3 0  1.2 3 0  1.4 3 0  1.6 3 0  1.8 3 0  2 3 0  2.2 3 0  2.4 3 0  2.6 3 0  2.8 3 0  3 3 0  3.2 3 0  3.4 3 0  3.6 3 0  3.8 3 0  4 3 0  4.2 3 0  4.4 3 0  4.6 3 0  4.8 3 0  5 3 0  5.2 3 0  5.4 3 0  5.6 3 0  5.8 3 0  6 3 0  6.2 3 0  6.4 3 0  6.6 3 0  6.8 3 0  7 3 0  7.2 3 0  7.4 3 0  7.6 3 0  7.8 3 0  8 3 0  8.199999999999999 3 0  8.4 3 0  8.6 3 0  8.800000000000001 3 0  9 3 0  9.199999999999999 3 0  9.4 3 0  9.6 3 0  9.800000000000001 3 0  10 3 0  0 3.2 0  0.2 3.2 0  0.4 3.2 0  0.6 3.2 0  0.8 3.2 0  1 3.2 0  1.2 3.2 0  1.4 3.2 0  1.6 3.2 0  1.8 3.2 0  2 3.2 0  2.2 3.2 0  2.4 3.2 0  2.6 3.2 0  2.8 3.2 0  3 3.2 0  3.2 3.2 0  3.4 3.2 0  3.6 3.2 0  3.8 3.2 0  4 3.2 0  4.2 3.2 0  4.4 3.2 0  4.6 3.2 0  4.8 3.2 0  5 3.2 0  5.2 3.2 0  5.4 3.2 0  5.6 3.2 0  5.8 3.2 0  6 3.2 0  6.2 3.2 0  6.4 3.2 0  6.6 3.2 0  6.8 3.2 0  7 3.2 0  7.2 3.2 0  7.4 3.2 0  7.6 3.2 0  7.8 3.2 0  8 3.2 0  8.199999999999999 3.2 0  8.4 3.2 0  8.6 3.2 0  8.800000000000001 3.2 0  9 3.2 0  9.199999999999999 3.2 0  9.4 3.2 0  9.6 3.2 0  9.800000000000001 3.2 0  10 3.2 0  0 3.4 0  0.2 3.4 0  0.4 3.4 0  0.6 3.4 0  0.8 3.4 0  1 
[...]
<PointData  Scalars="f_8"> 
<DataArray  type="Float64"  Name="f_8"  format="ascii">-2.7169874496624200e-02  -1.2280054722257966e-02  -5.6396344469583541e-03  -3.4477993308616142e-03  -1.7114194258121464e-03  -5.4491391732682610e-04  3.2190843565868142e-04  9.7634829565559900e-04  1.4795758348421285e-03  1.8712472885132096e-03  2.1784025833942941e-03  2.4201100572216619e-03  2.6100318566446789e-03  2.7579997421925953e-03  2.8710318537402252e-03  2.9540237380685673e-03  3.0102465264113072e-03  3.0417302645578434e-03  3.0495789401827757e-03  3.0342441411361082e-03  2.9957712316067077e-03  2.9340231257505732e-03  2.8488811665063215e-03  2.7404197741370444e-03  2.6090509754214159e-03  2.4556360875141246e-03  2.2815639995203496e-03  2.0887979371682834e-03  1.8798947313816187e-03  1.6580021432594364e-03  1.4268407540471626e-03  1.1906775865796165e-03  9.5429936261375796e-04  7.2299447410773053e-04  5.0255461591861320e-04  2.9930981614112456e-04  1.2021463782704063e-04  -2.6990696746995559e-05  -1.3351114796183433e-04  -1.8907091853752222e-04  -1.8125422431453263e-04  -9.4484367808842681e-05  9.1585689967408590e-05  4.0469434411534216e-04  8.8468683917711352e-04  1.5924885392849986e-03  2.6148177338317317e-03  4.2209644090040570e-03  6.2955321156763309e-03  1.2834269117111269e-02  2.7585138811170945e-02  -2.1331432877446624e-01  -1.2674930655770270e-01  -7.8525650038248587e-02  -4.9342578491987227e-02  -2.9995071225072972e-02  -1.6441380959264909e-02  -6.6474382973928346e-03  5.5070980119923882e-04  5.8702666544534921e-03  9.7775120404518349e-03  1.2586864749905287e-02  1.4515844197661379e-02  1.5717875389552712e-02  1.6303129785382883e-02  1.6352532089395490e-02  1.5927667352619995e-02  1.5078095256716394e-02  1.3846904338943380e-02  1.2274947447688542e-02  1.0403967946114272e-02  8.2786972536968827e-03  5.9479507539839209e-03  3.4647545237725700e-03  8.8558475807775619e-04  -1.7311229833640079e-03  -4.3269582658142704e-03  -6.8457166756788201e-03  -9.2354556483218737e-03  -1.1450125565459672e-02  -1.3450541509840069e-02  -1.5204555320333055e-02  -1.6686389749473653e-02  -1.7875183959766200e-02  -1.8752854008492050e-02  -1.9301382709871948e-02  -1.9499617351554099e-02  -1.9319572757412831e-02  -1.8722111824579019e-02  -1.7651698497856159e-02  -1.6029663687332829e-02  -1.3745032616470150e-02  -1.0641303117782797e-02  -6.4963604485182482e-03  -9.9034405282734037e-04  6.3487586214322055e-03  1.6243753012550415e-02  2.9863788864591064e-02  4.9247622244714247e-02  7.8441669782534876e-02  1.2665361350567170e-01  2.1320737460339173e-01  -3.1271771963311523e-01  -2.0600575028280207e-01  -1.3654816924082619e-01  -8.8933944263512935e-02  -5.5685631009593735e-02  -3.1725512117044413e-02  -1.4145373348559887e-02  -1.1071932074889475e-03  8.5801144969454655e-03  1.5716433533279651e-02  2.0852609383843295e-02  2.4375075046750169e-02  2.6558949223504817e-02  2.7603033554650273e-02  2.7654035604735425e-02  2.6824129081673486e-02  2.5204192727140695e-02  2.2874038345153856e-02  1.9910310408203201e-02  1.6392355014212063e-02  1.2406140067534654e-02  8.0462259411616874e-03  3.4158142586073596e-03  -1.3749827536248317e-03  -6.2123431846608261e-03  -1.0982923522620093e-02  -1.5578417538051250e-02  -1.9899816855884041e-02  -2.3860752025933955e-02  -2.7389435219610757e-02  -3.0428931003473821e-02  -3.2935702756033199e-02  -3.4876569938966269e-02  -3.6224327135768918e-02  -3.6952299226637966e-02  -3.7028035943924051e-02  -3.6406192117681778e-02  -3.5020405972148443e-02  -3.2773672582991888e-02  -2.9526280351037309e-02  -2.5079752029057115e-02  -1.9154234519437395e-02  -1.1355061816306735e-02  -1.1210538140724749e-03  1.2358939001246521e-02  3.0287285799792465e-02  5.4512660345276506e-02  8.7952950339792557e-02  1.3569469214332675e-01  2.0522388329309577e-01  3.1196756588542163e-01  -3.7704312679854612e-01  -2.6494016979702717e-01  -1.8272399574934439e-01  -1.2289093016707250e-01  -7.8956461535357098e-02  -4.6378753495213129e-02  -2.2004635531953962e-02  -3.6864158665150643e-03  1.0057710985846010e-02  2.0263128903305280e-02  2.7661929372322938e-02  3.2776728772966654e-02  3.5983683354311249e-02  3.7556251085673030e-02  3.7696770014310717e-02  3.6560164994414404e-02  3.4272371552820265e-02  3.0944952148026957e-02  2.6686641276696760e-02  2.1612072719429807e-02  1.5847662084627782e-02  9.5345203341343984e-03  2.8283451037770897e-03  -4.1035508568125819e-03  -1.1087612376691858e-02  -1.7951036826945821e-02  -2.4529366434578561e-02  -3.0673551791021780e-02  -3.6255442340205918e-02  -4.1170913464335615e-02  -4.5340206691336572e-02  -4.8705451589067306e-02  -5.1225665314557405e-02  -5.2869721966409523e-02  -5.3607818916956200e-02  -5.3401846504388235e-02  -5.2194817959631531e-02  -4.9899167898616197e-02  -4.6383293055906778e-02  -4.1455167312233511e-02  -3.4841142736877870e-02  -2.6157002941669831e-02  -1.4866702701126252e-02  -2.2156203639419264e-04  1.8831717455738028e-02  4.3792747016083974e-02  7.6825867149411711e-02  1.2109906783662508e-01  1.8116664931377008e-01  2.6352415703652732e-01  3.7568489829118412e-01  -4.2198191813954683e-01  -3.0644652817823542e-01  -2.1761859601158265e-01  -1.4975378505755116e-01  -9.8152349112944751e-02  -5.8863803548052734e-02  -2.8904067988370176e-02  -6.0660875561672888e-03  1.1260438671064611e-02  2.4246638454371430e-02  3.3743870409047368e-02  4.0371146081679514e-02  4.4578888592284767e-02  4.6696124293269782e-02  4.6966355315733455e-02  4.5575723736857490e-02  4.2675790737746917e-02  3.8402266832489179e-02  3.2890279227637403e-02  2.6286218679337319e-02  1.8755873281695184e-02  1.0488450422231652e-02  1.6962240350375775e-03  -7.3900966893057380e-03  -1.6529668092393358e-02  -2.5482326386197140e-02  -3.4020325947803513e-02  -4.1939224044731126e-02  -4.9066263789961984e-02  -5.5265035140376437e-02  -6.0435814661729238e-02  -6.4511641038386400e-02  -6.7450718267627149e-02  -6.9226043312340071e-02  -6.9813191694436949e-02  -6.9176990074511863e-02  -6.7257424501258406e-02  -6.3954646714689617e-02  -5.9112395472398820e-02  -5.2498552462375371e-02  -4.3780864926146822e-02  -3.2495009666189525e-02  -1.8001039055533630e-02  5.7724222435335463e-04  2.4437150444267450e-02  5.5214561787959568e-02  9.5140050181790420e-02  1.4721816519322786e-01  2.1541600432814148e-01  3.0444632026779594e-01  4.2006633728273945e-01  -4.5415657045065932e-01  -3.3676774486622441e-01  -2.4366073130860971e-01  -1.7043742435736955e-01  -1.1327436767078693e-01  -6.8815164579332219e-02  -3.4331499475466397e-02  -7.6848351191512411e-03  1.2760163629077543e-02  2.8235402294392409e-02  3.9659146592191524e-02  4.7710053503736895e-02  5.2886172675947501e-02  5.5551794439550418e-02  5.5975230868956075e-02  5.4360081527486316e-02  5.0871775117117872e-02  4.5660388893342341e-02  3.8880013846661884e-02  3.0704319493856332e-02  2.1337554465487393e-02  1.1020084101098107e-02  2.7781478920563787e-05  -1.1334838324887199e-02  -2.2747006210257856e-02  -3.3887947159977234e-02  -4.4454569109784278e-02  -5.4177825887724455e-02  -6.2835185724316844e-02  -7.0257351594708931e-02  -7.6328420576723052e-02  -8.0979753637096419e-02  -8.4178681897426555e-02  -8.5913625467365154e-02  -8.6177206757855215e-02  -8.4948578581193285e-02  -8.2175596468548759e-02  -7.7756783651029629e-02  -7.1522364030265032e-02  -6.3213015028889999e-02  -5.2454414054627758e-02  -3.8725098854669592e-02  -2.1314649946499679e-02  7.3111383778814965e-04  2.8680858679319809e-02  6.4205048756035596e-02  1.0947394449439951e-01  1.6724296972087938e-01  2.4089001657348036e-01  3.3425499712676576e-01  4.5175209539028921e-01  -4.7747423856280435e-01  -3.5882692185313192e-01  -2.6287788737331363e-01  -1.8588105158441257e-01  -1.2461396344121448e-01  -7.6152240603899635e-02  -3.8015993817453735e-02  -8.1792046150010664e-03  1.4963497387829726e-02  3.2655694159514165e-02  4.5843116907985912e-02  5.5233229027848635e-02  6.1347199196069416e-02  6.4564281827391004e-02  6.5159949904400022e-02  6.3339360988590776e-02  5.9267400818999512e-02  5.3095916190448463e-02  4.4987983458596711e-02  3.5138301118881020e-02  2.3788206064684052e-02  1.1233577679219514e-02  -2.1758230219530426e-03  -1.6046158206585757e-02  -2.9957672511833195e-02  -4.3488849132214492e-02  -5.6242877099996459e-02  -6.7872098223528757e-02  -7.8096401633769061e-02  -8.6712736255612322e-02  -9.3594668991143853e-02  -9.8682712902251571e-02  -1.0196750409624311e-01  -1.0346853874493857e-01  -1.0321107244895746e-01  -1.0120311756524689e-01  -9.7413524114002573e-02  -9.1751148636611365e-02  -8.4044268579073295e-02  -7.4018757223743584e-02  -6.1273102061160462e-02  -4.5248126779367272e-02  -2.5189328085147643e-02  -1.0028585937122686e-04  3.1312848017718393e-02  7.0702369959039085e-02  1.2013589518179187e-01  1.8212830094524296e-01  2.5963134768918422e-01  3.5588819336933297e-01  4.7466583773253146e-01  -4.9434245922204167e-01  -3.7480545824715811e-01  -2.7681156510566052e-01  -1.9703391134654641e-01  -1.3264058010866281e-01  -8.1020658557664271e-02  -3.9900413004832234e-02  -7.3696473453809877e-03  1.8124062400855418e-02  3.7807928791459611e-02  5.2628322733105776e-02  6.3297643596382028e-02  7.0338992514528298e-02  7.4127173843806293e-02  7.4926309166041830e-02  7.2925016626788700e-02  6.8270038921012133e-02  6.1098631176435263e-02  5.1569117530622863e-02  3.9887977264295396e-02  2.6330881609856017e-02  1.1254599978109922e-02  -4.9030305129121607e-03  -2.1636609884310477e-02  -3.8399500964763668e-02  -5.4639662905259567e-02  -6.9839325577304823e-02  -8.3551621301627618e-02  -9.5427736937543528e-02  -1.0523020290189869e-01  -1.1283094736217331e-01  -1.1819575092519437e-01  -1.2135887724119231e-01  -1.2239248588995702e-01  -1.2137501431322241e-01  -1.1836145882904879e-01  -1.1335691548639827e-01  -1.0629329105086775e-01  -9.7008007119856049e-02  -8.5222865903030451e-02  -7.0520993815780961e-02  -5.2319889644218388e-02  -2.9839115044051956e-02  -2.0622570925883403e-03  3.2305181519618392e-02  7.4876948032751273e-02  1.2761658369050913e-01  1.9284203136896311e-01  2.7319845192502312e-01  3.7154350461710556e-01  4.9123087721788655e-01  -5.0635930739671076e-01  -3.8615439910973021e-01  -2.8660975949794765e-01  -2.0468792710124178e-01  -1.3782843827346183e-01  -8.3648919324683588e-02  -4.0038427225705740e-02  -5.1900672524270476e-03  2.2390194264015152e-02  4.3899373187048736e-02  6.0267650529602812e-02  7.2194831138673421e-02  8.0188218288555005e-02  8.4599897755198550e-02  8.5663299008559887e-02  8.3529804951990083e-02  7.8306270058941557e-02  7.0093706371529785e-02  5.9026222141378995e-02  4.5307734414150348e-02  2.9242370686808645e-02  1.1253367714669903e-02  -8.1146787477728976e-03  -2.8213633356145334e-02  -4.8329661402438218e-02  -6.7736503798374273e-02  -8.5755365493278279e-02  -1.0181026419677144e-01  -1.1546833688120793e-01  -1.2645817854823554e-01  -1.3466454984606263e-01  -1.4010289450180241e-01  -1.4288048020626329e-01  -1.4315193540082358e-01  -1.4107579433027573e-01  -1.3677627962424457e-01  -1.3031192854185253e-01  -1.2165050926307824e-01  -1.1064828760413198e-01  -9.7031091661053559e-02  -8.0374632426692863e-02  -6.0082024674695263e-02  -3.5357368705080057e-02  -5.1756951533884913e-03  3.1748261928402487e-02  7.6987035524798908e-02  1.3241450974122210e-01  2.0019632927201397e-01  2.8275684761284170e-01  3.8268791567921701e-01  5.0306072082400632e-01  -5.1463113262651683e-01  -3.9390161705160404e-01  -2.9312738006459943e-01  -2.0948328313897813e-01  -1.4060795088170067e-01  -8.4288914505209922e-02  -3.8541901213917436e-02  -1.6465771834222379e-03  2.7835857544736248e-02  5.1067247590963843e-02  6.8952109642530360e-02  8.2165480598147267e-02  9.1184447261614440e-02  9.6321376516438545e-02  9.7758809133070015e-02  9.5587088112858515e-02  8.9846035926112483e-02  8.0571344047330420e-02  6.7844769650536291e-02  5.1844853767319850e-02  3.2892089631677585e-02  1.1480115015660920e-02  -1.1716219162842722e-02  -3.5862953184413342e-02  -6.0020943847964400e-02  -8.3225461736486775e-02  -1.0457755659998787e-01  -1.2332872194324720e-01  -1.3894129131322985e-01  -1.5111337613697837e-01  -1.5976656032310013e-01  -1.6500337496348491e-01  -1.6704685774501854e-01  -1.6617526574990280e-01  -1.6266218861327900e-01  -1.5672781025474228e-01  -1.4850269758665849e-01  -1.3800233361303849e-01  -1.2510894939355210e-01  -1.0955681627777854e-01  -9.0917629478991790e-02  -6.8583604734351891e-02  -4.1747258000444987e-02  -9.3785602545743054e-03  2.9797647171560311e-02  7.7318514021040077e-02  1.3498666969652140e-01  2.0485257268113047e-01  2.8917899148057413e-01  3.9036469556885195e-01  5.1127634616987583e-01  -5.1995663879645326e-01  -3.9879989964162998e-01  -2.9701353996112217e-01  -2.1193535190628368e-01  -1.4135523653637563e-01  -8.3189550816723329e-02  -3.5552077943578987e-02  3.2076125007069567e-03  3.4480271101667626e-02  5.9393143425470259e-02  7.8821129416676669e-02  9.3407011344886007e-02  1.0358661609808947e-01  1.0961722852858632e-01  1.1160969369932350e-01  1.0956607332331900e-01  1.0342526367509161e-01  9.3118399064848867e-02  7.8633874710970289e-02  6.0088287649558834e-02  3.7794853626264877e-02  1.2316086407928908e-02  -1.5515161508302630e-02  -4.4620268737294737e-02  -7.3750823860205372e-02  -1.0160833740475143e-01  -1.2698553630446149e-01  -1.4889793129921869e-01  -1.6667545583693130e-01  -1.7999565177365831e-01  -1.8885712436448551e-01  -1.9350746689893122e-01  -1.9434799404931696e-01  -1.9183719927132806e-01  -1.8640842825427495e-01  -1.7840885934379583e-01  -1.6805973247828346e-01  -1.5543336119582571e-01  -1.4044078054346812e-01  -1.2282414279809138e-01  -1.0214928501649742e-01  -7.7795627709128914e-02  -4.8942438890046756e-02  -1.4552498853958274e-02  2.6643590826589021e-02  7.6156929116302396e-02  1.3573662966042063e-01  2.0734702471189548e-01  2.9313050411474961e-01  3.9534056816968349e-01  5.1668944567530095e-01  -5.2293756947761727e-01  -4.0142207487321746e-01  -2.9877649677868628e-01  -2.1246648109804542e-01  -1.4039932237909203e-01  -8.0590036886368746e-02  -3.1227546273249897e-02  9.2842571871459573e-03  4.2297401278527609e-02  6.8909047573059171e-02  8.9965204424969678e-02  1.0607357255724333e-01  1.1762168603257614e-01  1.2479903303832010e-01  1.2762431242704356e-01  1.2598096849544552e-01  1.1966531897610662e-01  1.0845144454384703e-01  9.2174822162702563e-02  7.0831763593406177e-02  4.4683976461516152e-02  1.4348365546119577e-02  -1.9154984570333312e-02  -5.4423696246900882e-02  -8.9778212887577188e-02  -1.2344317414327641e-01  -1.5376952068127031e-01  -1.7944289934705560e-01  -1.9962488366010248e-01  -2.1399551814038453e-01  -2.2269827877200382e-01  -2.2621623713007682e-01  -2.2522032108707374e-01  -2.2042624772579605e-01  -2.1248265292608365e-01  -2.0189751207589599e-01  -1.8899866174797994e-01  -1.7391868316025935e-01  -1.5659351851411135e-01  -1.3676598855895203e-01  -1.1398817807649904e-01  -8.7619477054186087e-02  -5.6819576788290652e-02  -2.0537986988533475e-02  2.2496169357949510e-02  7.3778301799720072e-02  1.3501964233805488e-01  2.0812089013231411e-01  2.9513366764680443e-01  3.9819958678784578e-01  5.1991194011757125e-01  -5.2404800937235207e-01  -4.0222331894393565e-01  -2.9882980070512349e-01  -2.1143400006201438e-01  -1.3803483246288575e-01  -7.6722510438872335e-02  -2.5741961711731109e-02  1.6463354033054867e-02  5.1217712269180510e-02  7.9596158377400292e-02  1.0242119789069808e-01  1.2026796813486521e-01  1.3347411188034855e-01  1.4215327838586295e-01  1.4621417427616454e-01  1.4538996123012191e-01  1.3928515748980577e-01  1.2744826265458820e-01  1.0947671836627197e-01  8.5154757481233870e-02  5.4612840708694772e-02  1.8480561811791370e-02  -2.2011797244889206e-02  -6.5034493046311856e-02  -1.0829901973121500e-01  -1.4933485056035287e-01  -1.8584523451852045e-01  -2.1604487499233485e-01  -2.3888165051753207e-01  -2.5408722939727718e-01  -2.6206519778446546e-01  -2.6367564227555085e-01  -2.5999176743531383e-01  -2.5208892562128438e-01  -2.4089654315657727e-01  -2.2711579595504608e-01  -2.1118919971087088e-01  -1.9330279911645845e-01  -1.7340348565158487e-01  -1.5121890841013857e-01  -1.2627265439665042e-01  -9.7891638326689637e-02  -6.5205806940742683e-02  -2.7142675607079357e-02  1.7578735378865944e-02  7.0448283437825152e-02  1.3315256457983163e-01  2.0754611865576791e-01  2.9561178921521158e-01  3.9940392113381595e-01  5.2142386115458605e-01  -5.2367875696371513e-01  -4.0158179058083726e-01  -2.9752442808025847e-01  -2.0915215247305616e-01  -1.3453469470831622e-01  -7.1818163298140059e-02  -1.9286699990775123e-02  2.4591130000176868e-02  6.1124526483745431e-02  9.1377918789015716e-02  1.1616087753214366e-01  1.3602511890954111e-01  1.5126450043337647e-01  1.6191679517582391e-01  1.6776964884426024e-01  1.6837722187234341e-01  1.6309832935847970e-01  1.5117049607730845e-01  1.3183510332080919e-01  1.0452313037112257e-01  6.9094694225876094e-02  2.6096808495477557e-02  -2.3031825107006854e-02  -7.5904883144592844e-02  -1.2936470684625459e-01  -1.7990665542035378e-01  -2.2426130831204569e-01  -2.5995645039807064e-01  -2.8567267337227004e-01  -3.0129348742417750e-01  -3.0767946957620301e-01  -3.0628928560146051e-01  -2.9878834947468375e-01  -2.8674251330988354e-01  -2.7143199406517277e-01  -2.5377331797087888e-01  -2.3431535444382215e-01  -2.1327408460642835e-01  -1.9057931705647815e-01  -1.6591715344715685e-01  -1.3876068618970347e-01  -1.0838725256115966e-01  -7.3884125881325299e-02  -3.4146745725643954e-02  1.2124767419947601e-02  6.6423813795067774e-02  1.3042316799988435e-01  2.0594474920930306e-01  2.9491931066106608e-01  3.9933281000867671e-01  5.2161617299910235e-01  -5.2216579822108344e-01  -3.9982506797784362e-01  -2.9517055190501162e-01  -2.0590806581568413e-01  -1.3016064559772075e-01  -6.6113715967961659e-02  -1.2075300928065689e-02  3.3475471173635689e-02  7.1847213209265820e-02  1.0410895276852296e-01  1.3107372741603143e-01  1.5328716430488426e-01  1.7101608658265191e-01  1.8423508898825300e-01  1.9261314900027277e-01  1.9550781533281480e-01  1.9198156402696032e-01  1.8086296139865254e-01  1.6088174012343914e-01  1.3090584156201321e-01  9.0290363495627982e-02  3.9303642843016864e-02  -2.0474524073612350e-02  -8.5956431125606636e-02  -1.5273522973107259e-01  -2.1573543151132921e-01  -2.7018839628761598e-01  -3.1259727339298848e-01  -3.4132092855375079e-01  -3.5659532312404196e-01  -3.6007610706905835e-01  -3.5416541668595775e-01  -3.4138526641770028e-01  -3.2394725884637426e-01  -3.0354214098127080e-01  -2.8129734483717150e-01  -2.5783044194677246e-01  -2.3333901126502993e-01  -2.0768979580521035e-01  -1.8048947375456698e-01  -1.5113210784681741e-01  -1.1882519031609744e-01  -8.2599339818826445e-02  -4.1308078312715255e-02  6.3750652692732218e-03  6.1954295850670353e-02  1.2709680291369144e-01  2.0360208308109451e-01  2.9336148336023188e-01  3.9830731503119110e-01  5.2081771779701114e-01  -5.1980819362226571e-01  -3.9724687781903167e-01  -2.9205160728249585e-01  -2.0197244124388430e-01  -1.2517066509435726e-01  -5.9856461811957730e-02  -4.3475235026506692e-03  4.2881082527010200e-02  8.3153482347541371e-02  1.1756208855176067e-01  1.4694594750233667e-01  1.7187142537101771e-01  1.9260876643200500e-01  2.0910056755174172e-01  2.2092235367304935e-01  2.2724193182394617e-01  2.2679429855678068e-01  2.1790337186328837e-01  1.9859906477726200e-01  1.6689066590626966e-01  1.2124778642343706e-01  6.1281861125652544e-02  -1.1505055967750257e-02  -9.3204672267222871e-02  -1.7761294136949934e-01  -2.5721536753835594e-01  -3.2486677754957033e-01  -3.7550269170023126e-01  -4.0713044594891895e-01  -4.2073725863741052e-01  -4.1935635806706584e-01  -4.0686197674394203e-01  -3.8698178342020534e-01  -3.6273095135947259e-01  -3.3622881165173257e-01  -3.0875597866501181e-01  -2.8091482084984870e-01  -2.5280343388531856e-01  -2.2415976723910730e-01  -1.9446322916574979e-01  -1.6299664336220682e-01  -1.2887727522655310e-01  -9.1066747884149965e-02  -4.8369195064447472e-02  5.7350916314641677e-04  5.7280887039272962e-02  1.23419