<?xml version="1.0"?>
<VTKFile type="UnstructuredGrid"  version="0.1"  >
<UnstructuredGrid>
<Piece  NumberOfPoints="2601" NumberOfCells="5000">
<Points>
<DataArray  type="Float64"  NumberOfComponents="3"  format="ascii">0 0 0  0.2 0 0  0.4 0 0  0.6 0 0  0.8 0 0  1 0 0  1.2 0 0  1.4 0 0  1.6 0 0  1.8 0 0  2 0 0  2.2 0 0  2.4 0 0  2.6 0 0  2.8 0 0  3 0 0  3.2 0 0  3.4 0 0  3.6 0 0  3.8 0 0  4 0 0  4.2 0 0  4.4 0 0  4.6 0 0  4.8 0 0  5 0 0  5.2 0 0  5.4 0 0  5.6 0 0  5.8 0 0  6 0 0  6.2 0 0  6.4 0 0  6.6 0 0  6.8 0 0  7 0 0  7.2 0 0  7.4 0 0  7.6 0 0  7.8 0 0  8 0 0  8.199999999999999 0 0  8.4 0 0  8.6 0 0  8.800000000000001 0 0  9 0 0  9.199999999999999 0 0  9.4 0 0  9.6 0 0  9.800000000000001 0 0  10 0 0  0 0.2 0  0.2 0.2 0  0.4 0.2 0  0.6 0.2 0  0.8 0.2 0  1 0.2 0  1.2 0.2 0  1.4 0.2 0  1.6 0.2 0  1.8 0.2 0  2 0.2 0  2.2 0.2 0  2.4 0.2 0  2.6 0.2 0  2.8 0.2 0  3 0.2 0  3.2 0.2 0  3.4 0.2 0  3.6 0.2 0  3.8 0.2 0  4 0.2 0  4.2 0.2 0  4.4 0.2 0  4.6 0.2 0  4.8 0.2 0  5 0.2 0  5.2 0.2 0  5.4 0.2 0  5.6 0.2 0  5.8 0.2 0  6 0.2 0  6.2 0.2 0  6.4 0.2 0  6.6 0.2 0  6.8 0.2 0  7 0.2 0  7.2 0.2 0  7.4 0.2 0  7.6 0.2 0  7.8 0.2 0  8 0.2 0  8.199999999999999 0.2 0  8.4 0.2 0  8.6 0.2 0  8.800000000000001 0.2 0  9 0.2 0  9.199999999999999 0.2 0  9.4 0.2 0  9.6 0.2 0  9.800000000000001 0.2 0  10 0.2 0  0 0.4 0  0.2 0.4 0  0.4 0.4 0  0.6 0.4 0  0.8 0.4 0  1 0.4 0  1.2 0.4 0  1.4 0.4 0  1.6 0.4 0  1.8 0.4 0  2 0.4 0  2.2 0.4 0  2.4 0.4 0  2.6 0.4 0  2.8 0.4 0  3 0.4 0  3.2 0.4 0  3.4 0.4 0  3.6 0.4 0  3.8 0.4 0  4 0.4 0  4.2 0.4 0  4.4 0.4 0  4.6 0.4 0  4.8 0.4 0  5 0.4 0  5.2 0.4 0  5.4 0.4 0  5.6 0.4 0  5.8 0.4 0  6 0.4 0  6.2 0.4 0  6.4 0.4 0  6.6 0.4 0  6.8 0.4 0  7 0.4 0  7.2 0.4 0  7.4 0.4 0  7.6 0.4 0  7.8 0.4 0  8 0.4 0  8.199999999999999 0.4 0  8.4 0.4 0  8.6 0.4 0  8.800000000000001 0.4 0  9 0.4 0  9.199999999999999 0.4 0  9.4 0.4 0  9.6 0.4 0  9.800000000000001 0.4 0  10 0.4 0  0 0.6 0  0.2 0.6 0  0.4 0.6 0  0.6 0.6 0  0.8 0.6 0  1 0.6 0  1.2 0.6 0  1.4 0.6 0  1.6 0.6 0  1.8 0.6 0  2 0.6 0  2.2 0.6 0  2.4 0.6 0  2.6 0.6 0  2.8 0.6 0  3 0.6 0  3.2 0.6 0  3.4 0.6 0  3.6 0.6 0  3.8 0.6 0  4 0.6 0  4.2 0.6 0  4.4 0.6 0  4.6 0.6 0  4.8 0.6 0  5 0.6 0  5.2 0.6 0  5.4 0.6 0  5.6 0.6 0  5.8 0.6 0  6 0.6 0  6.2 0.6 0  6.4 0.6 0  6.6 0.6 0  6.8 0.6 0  7 0.6 0  7.2 0.6 0  7.4 0.6 0  7.6 0.6 0  7.8 0.6 0  8 0.6 0  8.199999999999999 0.6 0  8.4 0.6 0  8.6 0.6 0  8.800000000000001 0.6 0  9 0.6 0  9.199999999999999 0.6 0  9.4 0.6 0  9.6 0.6 0  9.800000000000001 0.6 0  10 0.6 0  0 0.8 0  0.2 0.8 0  0.4 0.8 0  0.6 0.8 0  0.8 0.8 0  1 0.8 0  1.2 0.8 0  1.4 0.8 0  1.6 0.8 0  1.8 0.8 0  2 0.8 0  2.2 0.8 0  2.4 0.8 0  2.6 0.8 0  2.8 0.8 0  3 0.8 0  3.2 0.8 0  3.4 0.8 0  3.6 0.8 0  3.8 0.8 0  4 0.8 0  4.2 0.8 0  4.4 0.8 0  4.6 0.8 0  4.8 0.8 0  5 0.8 0  5.2 0.8 0  5.4 0.8 0  5.6 0.8 0  5.8 0.8 0  6 0.8 0  6.2 0.8 0  6.4 0.8 0  6.6 0.8 0  6.8 0.8 0  7 0.8 0  7.2 0.8 0  7.4 0.8 0  7.6 0.8 0  7.8 0.8 0  8 0.8 0  8.199999999999999 0.8 0  8.4 0.8 0  8.6 0.8 0  8.800000000000001 0.8 0  9 0.8 0  9.199999999999999 0.8 0  9.4 0.8 0  9.6 0.8 0  9.800000000000001 0.8 0  10 0.8 0  0 1 0  0.2 1 0  0.4 1 0  0.6 1 0  0.8 1 0  1 1 0  1.2 1 0  1.4 1 0  1.6 1 0  1.8 1 0  2 1 0  2.2 1 0  2.4 1 0  2.6 1 0  2.8 1 0  3 1 0  3.2 1 0  3.4 1 0  3.6 1 0  3.8 1 0  4 1 0  4.2 1 0  4.4 1 0  4.6 1 0  4.8 1 0  5 1 0  5.2 1 0  5.4 1 0  5.6 1 0  5.8 1 0  6 1 0  6.2 1 0  6.4 1 0  6.6 1 0  6.8 1 0  7 1 0  7.2 1 0  7.4 1 0  7.6 1 0  7.8 1 0  8 1 0  8.199999999999999 1 0  8.4 1 0  8.6 1 0  8.800000000000001 1 0  9 1 0  9.199999999999999 1 0  9.4 1 0  9.6 1 0  9.800000000000001 1 0  10 1 0  0 1.2 0  0.2 1.2 0  0.4 1.2 0  0.6 1.2 0  0.8 1.2 0  1 1.2 0  1.2 1.2 0  1.4 1.2 0  1.6 1.2 0  1.8 1.2 0  2 1.2 0  2.2 1.2 0  2.4 1.2 0  2.6 1.2 0  2.8 1.2 0  3 1.2 0  3.2 1.2 0  3.4 1.2 0  3.6 1.2 0  3.8 1.2 0  4 1.2 0  4.2 1.2 0  4.4 1.2 0  4.6 1.2 0  4.8 1.2 0  5 1.2 0  5.2 1.2 0  5.4 1.2 0  5.6 1.2 0  5.8 1.2 0  6 1.2 0  6.2 1.2 0  6.4 1.2 0  6.6 1.2 0  6.8 1.2 0  7 1.2 0  7.2 1.2 0  7.4 1.2 0  7.6 1.2 0  7.8 1.2 0  8 1.2 0  8.199999999999999 1.2 0  8.4 1.2 0  8.6 1.2 0  8.800000000000001 1.2 0  9 1.2 0  9.199999999999999 1.2 0  9.4 1.2 0  9.6 1.2 0  9.800000000000001 1.2 0  10 1.2 0  0 1.4 0  0.2 1.4 0  0.4 1.4 0  0.6 1.4 0  0.8 1.4 0  1 1.4 0  1.2 1.4 0  1.4 1.4 0  1.6 1.4 0  1.8 1.4 0  2 1.4 0  2.2 1.4 0  2.4 1.4 0  2.6 1.4 0  2.8 1.4 0  3 1.4 0  3.2 1.4 0  3.4 1.4 0  3.6 1.4 0  3.8 1.4 0  4 1.4 0  4.2 1.4 0  4.4 1.4 0  4.6 1.4 0  4.8 1.4 0  5 1.4 0  5.2 1.4 0  5.4 1.4 0  5.6 1.4 0  5.8 1.4 0  6 1.4 0  6.2 1.4 0  6.4 1.4 0  6.6 1.4 0  6.8 1.4 0  7 1.4 0  7.2 1.4 0  7.4 1.4 0  7.6 1.4 0  7.8 1.4 0  8 1.4 0  8.199999999999999 1.4 0  8.4 1.4 0  8.6 1.4 0  8.800000000000001 1.4 0  9 1.4 0  9.199999999999999 1.4 0  9.4 1.4 0  9.6 1.4 0  9.800000000000001 1.4 0  10 1.4 0  0 1.6 0  0.2 1.6 0  0.4 1.6 0  0.6 1.6 0  0.8 1.6 0  1 1.6 0  1.2 1.6 0  1.4 1.6 0  1.6 1.6 0  1.8 1.6 0  2 1.6 0  2.2 1.6 0  2.4 1.6 0  2.6 1.6 0  2.8 1.6 0  3 1.6 0  3.2 1.6 0  3.4 1.6 0  3.6 1.6 0  3.8 1.6 0  4 1.6 0  4.2 1.6 0  4.4 1.6 0  4.6 1.6 0  4.8 1.6 0  5 1.6 0  5.2 1.6 0  5.4 1.6 0  5.6 1.6 0  5.8 1.6 0  6 1.6 0  6.2 1.6 0  6.4 1.6 0  6.6 1.6 0  6.8 1.6 0  7 1.6 0  7.2 1.6 0  7.4 1.6 0  7.6 1.6 0  7.8 1.6 0  8 1.6 0  8.199999999999999 1.6 0  8.4 1.6 0  8.6 1.6 0  8.800000000000001 1.6 0  9 1.6 0  9.199999999999999 1.6 0  9.4 1.6 0  9.6 1.6 0  9.800000000000001 1.6 0  10 1.6 0  0 1.8 0  0.2 1.8 0  0.4 1.8 0  0.6 1.8 0  0.8 1.8 0  1 1.8 0  1.2 1.8 0  1.4 1.8 0  1.6 1.8 0  1.8 1.8 0  2 1.8 0  2.2 1.8 0  2.4 1.8 0  2.6 1.8 0  2.8 1.8 0  3 1.8 0  3.2 1.8 0  3.4 1.8 0  3.6 1.8 0  3.8 1.8 0  4 1.8 0  4.2 1.8 0  4.4 1.8 0  4.6 1.8 0  4.8 1.8 0  5 1.8 0  5.2 1.8 0  5.4 1.8 0  5.6 1.8 0  5.8 1.8 0  6 1.8 0  6.2 1.8 0  6.4 1.8 0  6.6 1.8 0  6.8 1.8 0  7 1.8 0  7.2 1.8 0  7.4 1.8 0  7.6 1.8 0  7.8 1.8 0  8 1.8 0  8.199999999999999 1.8 0  8.4 1.8 0  8.6 1.8 0  8.800000000000001 1.8 0  9 1.8 0  9.199999999999999 1.8 0  9.4 1.8 0  9.6 1.8 0  9.800000000000001 1.8 0  10 1.8 0  0 2 0  0.2 2 0  0.4 2 0  0.6 2 0  0.8 2 0  1 2 0  1.2 2 0  1.4 2 0  1.6 2 0  1.8 2 0  2 2 0  2.2 2 0  2.4 2 0  2.6 2 0  2.8 2 0  3 2 0  3.2 2 0  3.4 2 0  3.6 2 0  3.8 2 0  4 2 0  4.2 2 0  4.4 2 0  4.6 2 0  4.8 2 0  5 2 0  5.2 2 0  5.4 2 0  5.6 2 0  5.8 2 0  6 2 0  6.2 2 0  6.4 2 0  6.6 2 0  6.8 2 0  7 2 0  7.2 2 0  7.4 2 0  7.6 2 0  7.8 2 0  8 2 0  8.199999999999999 2 0  8.4 2 0  8.6 2 0  8.800000000000001 2 0  9 2 0  9.199999999999999 2 0  9.4 2 0  9.6 2 0  9.800000000000001 2 0  10 2 0  0 2.2 0  0.2 2.2 0  0.4 2.2 0  0.6 2.2 0  0.8 2.2 0  1 2.2 0  1.2 2.2 0  1.4 2.2 0  1.6 2.2 0  1.8 2.2 0  2 2.2 0  2.2 2.2 0  2.4 2.2 0  2.6 2.2 0  2.8 2.2 0  3 2.2 0  3.2 2.2 0  3.4 2.2 0  3.6 2.2 0  3.8 2.2 0  4 2.2 0  4.2 2.2 0  4.4 2.2 0  4.6 2.2 0  4.8 2.2 0  5 2.2 0  5.2 2.2 0  5.4 2.2 0  5.6 2.2 0  5.8 2.2 0  6 2.2 0  6.2 2.2 0  6.4 2.2 0  6.6 2.2 0  6.8 2.2 0  7 2.2 0  7.2 2.2 0  7.4 2.2 0  7.6 2.2 0  7.8 2.2 0  8 2.2 0  8.199999999999999 2.2 0  8.4 2.2 0  8.6 2.2 0  8.800000000000001 2.2 0  9 2.2 0  9.199999999999999 2.2 0  9.4 2.2 0  9.6 2.2 0  9.800000000000001 2.2 0  10 2.2 0  0 2.4 0  0.2 2.4 0  0.4 2.4 0  0.6 2.4 0  0.8 2.4 0  1 2.4 0  1.2 2.4 0  1.4 2.4 0  1.6 2.4 0  1.8 2.4 0  2 2.4 0  2.2 2.4 0  2.4 2.4 0  2.6 2.4 0  2.8 2.4 0  3 2.4 0  3.2 2.4 0  3.4 2.4 0  3.6 2.4 0  3.8 2.4 0  4 2.4 0  4.2 2.4 0  4.4 2.4 0  4.6 2.4 0  4.8 2.4 0  5 2.4 0  5.2 2.4 0  5.4 2.4 0  5.6 2.4 0  5.8 2.4 0  6 2.4 0  6.2 2.4 0  6.4 2.4 0  6.6 2.4 0  6.8 2.4 0  7 2.4 0  7.2 2.4 0  7.4 2.4 0  7.6 2.4 0  7.8 2.4 0  8 2.4 0  8.199999999999999 2.4 0  8.4 2.4 0  8.6 2.4 0  8.800000000000001 2.4 0  9 2.4 0  9.199999999999999 2.4 0  9.4 2.4 0  9.6 2.4 0  9.800000000000001 2.4 0  10 2.4 0  0 2.6 0  0.2 2.6 0  0.4 2.6 0  0.6 2.6 0  0.8 2.6 0  1 2.6 0  1.2 2.6 0  1.4 2.6 0  1.6 2.6 0  1.8 2.6 0  2 2.6 0  2.2 2.6 0  2.4 2.6 0  2.6 2.6 0  2.8 2.6 0  3 2.6 0  3.2 2.6 0  3.4 2.6 0  3.6 2.6 0  3.8 2.6 0  4 2.6 0  4.2 2.6 0  4.4 2.6 0  4.6 2.6 0  4.8 2.6 0  5 2.6 0  5.2 2.6 0  5.4 2.6 0  5.6 2.6 0  5.8 2.6 0  6 2.6 0  6.2 2.6 0  6.4 2.6 0  6.6 2.6 0  6.8 2.6 0  7 2.6 0  7.2 2.6 0  7.4 2.6 0  7.6 2.6 0  7.8 2.6 0  8 2.6 0  8.199999999999999 2.6 0  8.4 2.6 0  8.6 2.6 0  8.800000000000001 2.6 0  9 2.6 0  9.199999999999999 2.6 0  9.4 2.6 0  9.6 2.6 0  9.800000000000001 2.6 0  10 2.6 0  0 2.8 0  0.2 2.8 0  0.4 2.8 0  0.6 2.8 0  0.8 2.8 0  1 2.8 0  1.2 2.8 0  1.4 2.8 0  1.6 2.8 0  1.8 2.8 0  2 2.8 0  2.2 2.8 0  2.4 2.8 0  2.6 2.8 0  2.8 2.8 0  3 2.8 0  3.2 2.8 0  3.4 2.8 0  3.6 2.8 0  3.8 2.8 0  4 2.8 0  4.2 2.8 0  4.4 2.8 0  4.6 2.8 0  4.8 2.8 0  5 2.8 0  5.2 2.8 0  5.4 2.8 0  5.6 2.8 0  5.8 2.8 0  6 2.8 0  6.2 2.8 0  6.4 2.8 0  6.6 2.8 0  6.8 2.8 0  7 2.8 0  7.2 2.8 0  7.4 2.8 0  7.6 2.8 0  7.8 2.8 0  8 2.8 0  8.199999999999999 2.8 0  8.4 2.8 0  8.6 2.8 0  8.800000000000001 2.8 0  9 2.8 0  9.199999999999999 2.8 0  9.4 2.8 0  9.6 2.8 0  9.800000000000001 2.8 0  10 2.8 0  0 3 0  0.2 3 0  0.4 3 0  0.6 3 0  0.8 3 0  1 3 0  1.2 3 0  1.4 3 0  1.6 3 0  1.8 3 0  2 3 0  2.2 3 0  2.4 3 0  2.6 3 0  2.8 3 0  3 3 0  3.2 3 0  3.4 3 0  3.6 3 0  3.8 3 0  4 3 0  4.2 3 0  4.4 3 0  4.6 3 0  4.8 3 0  5 3 0  5.2 3 0  5.4 3 0  5.6 3 0  5.8 3 0  6 3 0  6.2 3 0  6.4 3 0  6.6 3 0  6.8 3 0  7 3 0  7.2 3 0  7.4 3 0  7.6 3 0  7.8 3 0  8 3 0  8.199999999999999 3 0  8.4 3 0  8.6 3 0  8.800000000000001 3 0  9 3 0  9.199999999999999 3 0  9.4 3 0  9.6 3 0  9.800000000000001 3 0  10 3 0  0 3.2 0  0.2 3.2 0  0.4 3.2 0  0.6 3.2 0  0.8 3.2 0  1 3.2 0  1.2 3.2 0  1.4 3.2 0  1.6 3.2 0  1.8 3.2 0  2 3.2 0  2.2 3.2 0  2.4 3.2 0  2.6 3.2 0  2.8 3.2 0  3 3.2 0  3.2 3.2 0  3.4 3.2 0  3.6 3.2 0  3.8 3.2 0  4 3.2 0  4.2 3.2 0  4.4 3.2 0  4.6 3.2 0  4.8 3.2 0  5 3.2 0  5.2 3.2 0  5.4 3.2 0  5.6 3.2 0  5.8 3.2 0  6 3.2 0  6.2 3.2 0  6.4 3.2 0  6.6 3.2 0  6.8 3.2 0  7 3.2 0  7.2 3.2 0  7.4 3.2 0  7.6 3.2 0  7.8 3.2 0  8 3.2 0  8.199999999999999 3.2 0  8.4 3.2 0  8.6 3.2 0  8.800000000000001 3.2 0  9 3.2 0  9.199999999999999 3.2 0  9.4 3.2 0  9.6 3.2 0  9.800000000000001 3.2 0  10 3.2 0  0 3.4 0  0.2 3.4 0  0.4 3.4 0  0.6 3.4 0  0.8 3.4 0  1 3
[...]
<PointData  Scalars="f_6"> 
<DataArray  type="Float64"  Name="f_6"  format="ascii">6.6230692757854828e-02  9.3917550830089444e-02  1.1398185724196920e-01  1.2810619098497927e-01  1.3803093587132123e-01  1.4506953435894732e-01  1.5013482582862153e-01  1.5384545375141864e-01  1.5661888566165719e-01  1.5873817999925341e-01  1.6039700493062911e-01  1.6172934406352740e-01  1.6282899799510253e-01  1.6376242036345651e-01  1.6457722277587322e-01  1.6530786071268777e-01  1.6597947486825051e-01  1.6661051661545487e-01  1.6721456490223366e-01  1.6780159992751476e-01  1.6837890742760650e-01  1.6895172791537491e-01  1.6952372608010555e-01  1.7009732934739721e-01  1.7067396654151001e-01  1.7125422456039599e-01  1.7183793084842069e-01  1.7242416071440406e-01  1.7301116000109834e-01  1.7359616421530691e-01  1.7417508393156503e-01  1.7474201195719635e-01  1.7528848913348766e-01  1.7580244140511003e-01  1.7626666974011215e-01  1.7665673630136328e-01  1.7693804713975186e-01  1.7706189199865172e-01  1.7696018819065232e-01  1.7653874138435000e-01  1.7566909937503719e-01  1.7417978262802739e-01  1.7184932244359596e-01  1.6840706603077246e-01  1.6355480416449533e-01  1.5703574375461912e-01  1.4880148541417274e-01  1.3936885195062468e-01  1.3052755637335939e-01  1.2667872762550586e-01  1.3671923623662255e-01  4.3180633041356560e-02  5.1800814983399592e-02  6.3660297048188902e-02  7.3459614758654479e-02  8.0774332407137384e-02  8.6090043829929519e-02  8.9946129214532780e-02  9.2770272348621910e-02  9.4872465833431452e-02  9.6470670699256286e-02  9.7716849515515902e-02  9.8717084141483669e-02  9.9545860269559985e-02  1.0025588583181681e-01  1.0088476208947844e-01  1.0145950986977846e-01  1.0199965347164203e-01  1.0251933808184216e-01  1.0302879833870636e-01  1.0353538893530689e-01  1.0404431713597284e-01  1.0455916999821144e-01  1.0508229776309608e-01  1.0561509380340235e-01  1.0615819704962354e-01  1.0671163251827917e-01  1.0727489779622873e-01  1.0784699692822421e-01  1.0842641724056716e-01  1.0901103849348377e-01  1.0959795673420501e-01  1.1018319667583464e-01  1.1076127570322047e-01  1.1132456910660793e-01  1.1186240951223610e-01  1.1235983408918269e-01  1.1279587315238356e-01  1.1314125960868966e-01  1.1335544578750043e-01  1.1338287743801682e-01  1.1314866923707566e-01  1.1255430911579667e-01  1.1147510944864324e-01  1.0976345222303004e-01  1.0726664503450380e-01  1.0387761427049731e-01  9.9654565841893417e-02  9.5078782887842092e-02  9.1580375091323135e-02  9.2581820459598493e-02  1.0562888449727460e-01  3.0364343799855531e-02  3.2754519462665874e-02  3.3461192972664484e-02  3.9076107395184301e-02  4.4377574269072698e-02  4.8519799976909597e-02  5.1593906251048899e-02  5.3849479852942812e-02  5.5514872477029902e-02  5.6765511186078588e-02  5.7728598277775510e-02  5.8494448460571134e-02  5.9126801121197850e-02  5.9670669208423260e-02  6.0157945044374654e-02  6.0611303343934129e-02  6.1046895316054450e-02  6.1476208704742623e-02  6.1907359129586961e-02  6.2345994818092706e-02  6.2795937861869600e-02  6.3259644648941751e-02  6.3738540660527337e-02  6.4233266187744956e-02  6.4743856747731199e-02  6.5269873007479121e-02  6.5810488448328736e-02  6.6364537841974103e-02  6.6930525148821765e-02  6.7506585144720063e-02  6.8090388480281927e-02  6.8678974582338015e-02  6.9268490476558781e-02  6.9853806004050820e-02  7.0427967033049807e-02  7.0981438729764521e-02  7.1501082666721366e-02  7.1968809259529615e-02  7.2359861420897453e-02  7.2640739374247851e-02  7.2766918383504881e-02  7.2680839778722986e-02  7.2311372207093091e-02  7.1577446895113084e-02  7.0401658240975537e-02  6.8745805708431570e-02  6.6692468363955898e-02  6.4619966872359560e-02  6.3562611515122061e-02  6.5939554809563386e-02  7.7096465921260474e-02  2.2271551892260485e-02  2.2077469115937554e-02  1.9569108113492956e-02  1.8012121179618118e-02  2.0924034129217655e-02  2.4078593000843463e-02  2.6650624563258996e-02  2.8598433543344768e-02  3.0045576378436752e-02  3.1125811083323709e-02  3.1948075527725307e-02  3.2593760977019354e-02  3.3121688284217000e-02  3.3573813751298504e-02  3.3979926146511470e-02  3.4361140270482878e-02  3.4732392326318182e-02  3.5104194205027903e-02  3.5483862397215099e-02  3.5876382050571518e-02  3.6285019662842116e-02  3.6711762647430514e-02  3.7157638932781817e-02  3.7622952302677995e-02  3.8107457089091495e-02  3.8610487364838006e-02  3.9131049703937819e-02  3.9667884000037790e-02  4.0219493126315051e-02  4.0784138920541391e-02  4.1359798733030244e-02  4.1944073307628699e-02  4.2534032875663132e-02  4.3125983939065984e-02  4.3715134425041456e-02  4.4295130277566833e-02  4.4857433596384062e-02  4.5390514504806662e-02  4.5878843185520511e-02  4.6301709778834438e-02  4.6631998268776419e-02  4.6835257127975885e-02  4.6869867293986310e-02  4.6690053681253549e-02  4.6255411970571779e-02  4.5554500325096968e-02  4.4657774844461415e-02  4.3830423938724938e-02  4.3766076565884889e-02  4.6067847356172226e-02  5.4300159004510240e-02  1.6746809795689002e-02  1.5342959056525139e-02  1.1803062851646062e-02  8.3886121565290989e-03  6.4360218181852965e-03  8.1104244601543380e-03  1.0173423777756360e-02  1.1927916208385481e-02  1.3291549747192120e-02  1.4327031281214745e-02  1.5117665195898451e-02  1.5735598982669196e-02  1.6236526712121533e-02  1.6661563275334339e-02  1.7040473177611818e-02  1.7394600224057147e-02  1.7739152898512488e-02  1.8084887398928863e-02  1.8439318285319049e-02  1.8807583047086872e-02  1.9193060798981174e-02  1.9597818611188110e-02  2.0022937358699859e-02  2.0468752884235365e-02  2.0935036705803243e-02  2.1421132276741410e-02  2.1926056913293947e-02  2.2448575169995946e-02  2.2987246097407620e-02  2.3540444044321079e-02  2.4106350162146534e-02  2.4682909310763043e-02  2.5267744507076081e-02  2.5858018351904336e-02  2.6450228133793042e-02  2.7039918967337054e-02  2.7621298415038034e-02  2.8186738798508304e-02  2.8726164407441017e-02  2.9226349252688286e-02  2.9670215151794441e-02  3.0036356036599991e-02  3.0299294571136247e-02  3.0431545697059342e-02  3.0409708465807452e-02  3.0229117361295778e-02  2.9936241111584896e-02  2.9697448340295630e-02  2.9942294075771911e-02  3.1663957353488391e-02  3.7102358042422318e-02  1.2773304690986165e-02  1.0761276838364323e-02  6.9759628608096896e-03  3.1043682369483678e-03  -2.9392493567918228e-05  -1.7668264124914893e-03  -6.8321854178074351e-04  7.9049871667907236e-04  2.0956100719412272e-03  3.1434887252284058e-03  3.9651787357459023e-03  4.6145117180993881e-03  5.1412748413001705e-03  5.5853045035033373e-03  5.9767555865128776e-03  6.3378813145767571e-03  6.6848776336203035e-03  7.0294086075385794e-03  7.3797721841100204e-03  7.7417628785743349e-03  8.1193030979625613e-03  8.5149053685456468e-03  8.9300133554212902e-03  9.3652564847205716e-03  9.8206426328529533e-03  1.0295705603192741e-02  1.0789618425689802e-02  1.1301279326578805e-02  1.1829374053505259e-02  1.2372415742114487e-02  1.2928761401177288e-02  1.3496602177305677e-02  1.4073922707452216e-02  1.4658423025285170e-02  1.5247394719352339e-02  1.5837541612538291e-02  1.6424734787859999e-02  1.7003693688092073e-02  1.7567592000541477e-02  1.8107604462824119e-02  1.8612449001887788e-02  1.9068057975327731e-02  1.9457672300303736e-02  1.9762971352596782e-02  1.9967487711692333e-02  2.0064833621008752e-02  2.0076865779387477e-02  2.0092309719786101e-02  2.0348032805845007e-02  2.1403569253182621e-02  2.4559331580891727e-02  9.8082100836518454e-03  7.4748356076310358e-03  3.7530953048877679e-03  -8.9571392321387291e-05  -3.4593973513683310e-03  -6.0089835536081644e-03  -7.3736426672289489e-03  -6.5848569414096465e-03  -5.4511668468496290e-03  -4.4099941116075006e-03  -3.5435785700962245e-03  -2.8381818799182749e-03  -2.2583690923899677e-03  -1.7689473479372891e-03  -1.3406536007467404e-03  -9.5071856948701042e-04  -5.8197023381860002e-04  -2.2169036151092010e-04  1.3940506310127236e-04  5.0798101263716173e-04  8.8870756356833704e-04  1.2847302493760456e-03  1.6980239647650642e-03  2.1296610706770863e-03  2.5800168203120415e-03  3.0489287156818734e-03  3.5358212612439386e-03  4.0398036528985206e-03  4.5597449485899662e-03  5.0943289388107006e-03  5.6420890442584505e-03  6.2014219373861465e-03  6.7705770881236922e-03  7.3476179992648313e-03  7.9303495244041813e-03  8.5162044697057911e-03  9.1020819999352923e-03  9.6841309173493657e-03  1.0257474098136684e-02  1.0815879032940595e-02  1.1351398800711135e-02  1.1854047894815279e-02  1.2311657186979887e-02  1.2710209154091464e-02  1.3035263292737976e-02  1.3275699941071020e-02  1.3432284618551456e-02  1.3536288190427407e-02  1.3689675235154887e-02  1.4155187777485895e-02  1.5591857098564553e-02  7.5364092437141938e-03  5.0245971019668200e-03  1.4823749150367378e-03  -2.1513301567375313e-03  -5.4355598614197866e-03  -8.1371272507821078e-03  -1.0095383542751820e-02  -1.1093011170746257e-02  -1.0460870014886370e-02  -9.5388650496428008e-03  -8.6655549295420829e-03  -7.9127581334718367e-03  -7.2764309626637122e-03  -6.7331535496979586e-03  -6.2577507368071408e-03  -5.8284244127470713e-03  -5.4277232563644216e-03  -5.0421900747959856e-03  -4.6616808460320314e-03  -4.2786912923217313e-03  -3.8877873598262939e-03  -3.4851510809972737e-03  -3.0682264463438732e-03  -2.6354445173258144e-03  -2.1860089612012207e-03  -1.7197270944244258e-03  -1.2368754396203765e-03  -7.3809214303360057e-04  -2.2429128985844847e-04  3.0340370450216932e-04  8.4370871323113114e-04  1.3952091415121428e-03  1.9563700834417915e-03  2.5255234101712412e-03  3.1008275348188845e-03  3.6801943244273530e-03  4.2611764399276041e-03  4.8408075333374011e-03  5.4153877604348069e-03  5.9802090370469040e-03  6.5292203453834723e-03  7.0546467498060093e-03  7.5466030876698781e-03  7.9927967595696536e-03  8.3785183853403739e-03  8.6873295817935878e-03  8.9033093202018302e-03  9.0167767272278706e-03  9.0381769465748430e-03  9.0337083721586282e-03  9.2398716700322417e-03  5.7631965707026960e-03  3.1455029885548123e-03  -1.8628992732845913e-04  -3.5541651536678208e-03  -6.6360950726203384e-03  -9.2649811336447240e-03  -1.1344722746199682e-02  -1.2796435132782705e-02  -1.3484819244418786e-02  -1.2943996903360792e-02  -1.2164760402492319e-02  -1.1407640483773601e-02  -1.0733491649350186e-02  -1.0143696975061609e-02  -9.6229159785229772e-03  -9.1530865707552620e-03  -8.7178928632190462e-03  -8.3038957693730257e-03  -7.9005099049104712e-03  -7.4996285015817054e-03  -7.0951889992307178e-03  -6.6827780184967643e-03  -6.2593005769742572e-03  -5.8227117676334043e-03  -5.3718011064355078e-03  -4.9060188726005394e-03  -4.4253353409057393e-03  -3.9301259857194831e-03  -3.4210778392493703e-03  -2.8991140156113329e-03  -2.3653349664841351e-03  -1.8209763844372431e-03  -1.2673849106189584e-03  -7.0601403318829091e-04  -1.3844387946139645e-04  4.3356989702660726e-04  1.0080111643141934e-03  1.5824732056016417e-03  2.1539718359205751e-03  2.7186871103359522e-03  3.2716153964768417e-03  3.8061090645465099e-03  4.3132746349401228e-03  4.7811896073364753e-03  5.1938791350891684e-03  5.5299620346806301e-03  5.7608415204056691e-03  5.8483684478156071e-03  5.7425123074437041e-03  5.3833457157947476e-03  4.7388611546052709e-03  4.3619998913582963e-03  1.6753727750723822e-03  -1.4529062773169744e-03  -4.5521473221659843e-03  -7.3972000827513948e-03  -9.8705909154029759e-03  -1.1908351249975970e-02  -1.3470885880463497e-02  -1.4518169888008964e-02  -1.4964002387176946e-02  -1.4483077806569112e-02  -1.3807477597363763e-02  -1.3137128961050707e-02  -1.2522747170130062e-02  -1.1968657004907885e-02  -1.1465047413413133e-02  -1.0999020020452357e-02  -1.0558391220953605e-02  -1.0132842930954246e-02  -9.7140905973504311e-03  -9.2957078731333524e-03  -8.8728566657498703e-03  -8.4420161767372829e-03  -8.0007419972227579e-03  -7.5474615910940132e-03  -7.0813035180570874e-03  -6.6019552928027695e-03  -6.1095449089120148e-03  -5.6045421034946917e-03  -5.0876767166498464e-03  -4.5598727628014838e-03  -4.0221980289223101e-03  -3.4758301879894609e-03  -2.9220416522083036e-03  -2.3622068113981830e-03  -1.7978370675288140e-03  -1.2306514024156383e-03  -6.6269340862471773e-04  -9.6510240597158755e-05  4.6458442690281744e-04  1.0161312417145550e-03  1.5519814440015057e-03  2.0635127856529346e-03  2.5384804858364224e-03  2.9592885172549772e-03  3.3002988652357018e-03  3.5234919408504194e-03  3.5712811326842355e-03  3.3546458620507579e-03  2.7353958377815350e-03  1.5176096136883732e-03  3.2468661108822324e-03  5.1000182881988073e-04  -2.4372744548182288e-03  -5.2886340974852633e-03  -7.8985812859760484e-03  -1.0190620475734269e-02  -1.2123427001080121e-02  -1.3674238240096167e-02  -1.4827841519984106e-02  -1.5563915558148013e-02  -1.5827124730649681e-02  -1.5390344045354925e-02  -1.4794448255099530e-02  -1.4192694403275434e-02  -1.3626943396683985e-02  -1.3102986031576794e-02  -1.2614832575367772e-02  -1.2153387877322263e-02  -1.1709636382207886e-02  -1.1275734574045751e-02  -1.0845280158868188e-02  -1.0413263686025078e-02  -9.9759102103492668e-03  -9.5304958294160965e-03  -9.0751719450100302e-03  -8.6088080829391789e-03  -8.1308551525270823e-03  -7.6412278251903644e-03  -7.1402040137552988e-03  -6.6283397891254356e-03  -6.1063988468066889e-03  -5.5752965867003866e-03  -5.0360599399562741e-03  -4.4898053160948746e-03  -3.9377385759674609e-03  -3.3811829603488798e-03  -2.8216437195250901e-03  -2.2609222524263822e-03  -1.7012985962529246e-03  -1.1458103064268697e-03  -5.9867022361528930e-04  -6.5889170719971084e-05  4.4379046714713652e-04  9.1747397279057718e-04  1.3359019862001689e-03  1.6699049135985727e-03  1.8745421239721391e-03  1.8791498788027585e-03  1.5702302456535994e-03  7.6298678462846528e-04  -8.3359709631214798e-04  2.3571354004381212e-03  -4.2056343457386609e-04  -3.2141885202917339e-03  -5.8473759696322427e-03  -8.2400841726358327e-03  -1.0350566885650055e-02  -1.2156218665229051e-02  -1.3645134441527007e-02  -1.4811233638404959e-02  -1.5650054757756573e-02  -1.6151789282940303e-02  -1.6281113757399632e-02  -1.5879815861403638e-02  -1.5347643852116941e-02  -1.4802083370281686e-02  -1.4277496386054139e-02  -1.3780262334090024e-02  -1.3307044701385886e-02  -1.2851577308805678e-02  -1.2407301175874214e-02  -1.1968358146316633e-02  -1.1529903297076980e-02  -1.1088133441149759e-02  -1.0640202707969315e-02  -1.0184099796854361e-02  -9.7185189370532585e-03  -9.2427375615628284e-03  -8.7565053481920129e-03  -8.2599458712957294e-03  -7.7534710102478673e-03  -7.2377082574199619e-03  -6.7134416129903248e-03  -6.1815676373147789e-03  -5.6430694304059944e-03  -5.0990129225131561e-03  -4.5505721016149935e-03  -3.9990930203300133e-03  -3.4462111634973483e-03  -2.8940438909506321e-03  -2.3454906349034939e-03  -1.8046907937055931e-03  -1.2777172349648285e-03  -7.7363018293212179e-04  -3.0609757273824308e-04  1.0406641278839742e-04  4.2482586644497207e-04  6.0619706441861361e-04  5.6884883758090638e-04  1.8442801713623090e-04  -7.5803050208645643e-04  -2.6006842602280611e-03  1.6485107565006360e-03  -1.1652163169677777e-03  -3.8322499324147004e-03  -6.2787673612652176e-03  -8.4783548399062457e-03  -1.0418859205272468e-02  -1.2093993207242033e-02  -1.3500733258961017e-02  -1.4638226049685819e-02  -1.5506923001069969e-02  -1.6107090552785405e-02  -1.6434740372428588e-02  -1.6467755567253758e-02  -1.6096391544165874e-02  -1.5616296984219893e-02  -1.5117612376124193e-02  -1.4628465779950016e-02  -1.4155314149795614e-02  -1.3696666600073645e-02  -1.3248377225664226e-02  -1.2805807786562873e-02  -1.2364705146142465e-02  -1.1921520336039718e-02  -1.1473479718554832e-02  -1.1018547624008578e-02  -1.0555344695775303e-02  -1.0083051756109903e-02  -9.6013129325526001e-03  -9.1101443355489416e-03  -8.6098513088732117e-03  -8.1009560899300247e-03  -7.5841376268188411e-03  -7.0601858639229931e-03  -6.5299738865096848e-03  -5.9944529536256515e-03  -5.4546778458523541e-03  -4.9118734752684849e-03  -4.3675589430064070e-03  -3.8237531362055677e-03  -3.2832980843495478e-03  -2.7503552684349777e-03  -2.2311604989457045e-03  -1.7351732262270644e-03  -1.2768418955105029e-03  -8.7835803783986816e-04  -5.7404514463016475e-04  -4.1753142361802869e-04  -4.9378272540983562e-04  -9.3972296347158391e-04  -1.9795975487303915e-03  -3.9794764649055264e-03  1.0876497202170501e-03  -1.7594270922525910e-03  -4.3243481249623256e-03  -6.6140565072675007e-03  -8.6459411808915802e-03  -1.0432990292074094e-02  -1.1983319674692246e-02  -1.3301860726057870e-02  -1.4391940362892970e-02  -1.5256349670067346e-02  -1.5897815480679946e-02  -1.6318601877178440e-02  -1.6518010985545784e-02  -1.6482711266230157e-02  -1.6137054694190842e-02  -1.5699917038124258e-02  -1.5240567318360298e-02  -1.4782016494752782e-02  -1.4330516569244391e-02  -1.3885862137909115e-02  -1.3445507681848877e-02  -1.3006327310100313e-02  -1.2565372502746697e-02  -1.2120175580552785e-02  -1.1668840433625519e-02  -1.1210033220008258e-02  -1.0742927536254759e-02  -1.0267131029836637e-02  -9.7826071073985350e-03  -9.2895989924868649e-03  -8.7885604901821353e-03  -8.2800967870976776e-03  -7.7649186815234436e-03  -7.2438144842802915e-03  -6.7176454127532365e-03  -6.1873727765738079e-03  -5.6541289793707698e-03  -5.1193499434663481e-03  -4.5849949833984783e-03  -4.0538930001492125e-03  -3.5302737909518626e-03  -3.0205748422432251e-03  -2.5346653734192623e-03  -2.0877157034974109e-03  -1.7030896065890605e-03  -1.4169041425126064e-03  -1.2853875595624374e-03  -1.3970590423129472e-03  -1.8933613421849213e-03  -3.0038956872399116e-03  -5.1023600021509602e-03  6.4877335436536003e-04  -2.2298213833293772e-03  -4.7136860332193612e-03  -6.8733018777655669e-03  -8.7617418254020175e-03  -1.0413267146729764e-02  -1.1848691426850496e-02  -1.3080243694821072e-02  -1.4115121157356303e-02  -1.4957905854554983e-02  -1.5612103429489817e-02  -1.6080962764305540e-02  -1.6367491897301949e-02  -1.6472856144785747e-02  -1.6389573164058785e-02  -1.6065962082393772e-02  -1.5664275699893863e-02  -1.5237868759656327e-02  -1.4805592464612693e-02  -1.4373355286549828e-02  -1.3941850124265642e-02  -1.3509749259097972e-02  -1.3075125970459565e-02  -1.2636097049101149e-02  -1.2191097965841875e-02  -1.1738977919144852e-02  -1.1279005372370345e-02  -1.0810829882214405e-02  -1.0334424230330508e-02  -9.8500200493181374e-03  -9.3580448382797731e-03  -8.8590659065220460e-03  -8.3537461212650661e-03  -7.8428168031546997e-03  -7.3270745366367908e-03  -6.8074111296190726e-03  -6.2848897905823497e-03  -5.7608863845047447e-03  -5.2373233563302504e-03  -4.7170371500245599e-03  -4.2043403026595962e-03  -3.7058712770142574e-03  -3.2318762940603562e-03  -2.7981520766752047e-03  -2.4290228335137019e-03  -2.1619786633942893e-03  -2.0550597543084591e-03  -2.1989055446422030e-03  -2.7368956416064282e-03  -3.8992609750231558e-03  -6.0580250314355346e-03  3.1147019534825477e-04  -2.5970133296335340e-03  -5.0173359929837121e-03  -7.0699323015290380e-03  -8.8368882837060458e-03  -1.0370393100507859e-02  -1.1702395641536979e-02  -1.2851819472896256e-02  -1.3829587516212686e-02  -1.4642038195099540e-02  -1.5293196251753304e-02  -1.5786218891370465e-02  -1.6124200575681188e-02  -1.6310318902201974e-02  -1.6346769374968539e-02  -1.6229946716610634e-02  -1.5924996079636728e-02  -1.5552400794947473e-02  -1.5153391749998840e-02  -1.4743467299747071e-02  -1.4328144079413185e-02  -1.3908748359661761e-02  -1.3484888911719738e-02  -1.3055597444223899e-02  -1.2619864597605574e-02  -1.2176880406879869e-02  -1.1726123966863511e-02  -1.1267374876743608e-02  -1.0800684776070940e-02  -1.0326330241914402e-02  -9.8447597204910191e-03  -9.3565429927859912e-03  -8.8623299975963757e-03  -8.3628257491748775e-03  -7.8587892312260883e-03  -7.3510665122162129e-03  -6.8406721741486893e-03  -6.3289390363695406e-03  -5.8177650330399145e-03  -5.3099995020881594e-03  -4.8100315729824325e-03  -4.3246750099741700e-03  -3.8644940780938309e-03  -3.4457968318871248e-03  -3.0936597457837146e-03  -2.8465858731829053e-03  -2.7638227175483185e-03  -2.9371342145847550e-03  -3.51020