<?xml version="1.0"?>
<VTKFile type="UnstructuredGrid"  version="0.1"  >
<UnstructuredGrid>
<Piece  NumberOfPoints="2601" NumberOfCells="5000">
<Points>
<DataArray  type="Float64"  NumberOfComponents="3"  format="ascii">0 0 0  0.2 0 0  0.4 0 0  0.6 0 0  0.8 0 0  1 0 0  1.2 0 0  1.4 0 0  1.6 0 0  1.8 0 0  2 0 0  2.2 0 0  2.4 0 0  2.6 0 0  2.8 0 0  3 0 0  3.2 0 0  3.4 0 0  3.6 0 0  3.8 0 0  4 0 0  4.2 0 0  4.4 0 0  4.6 0 0  4.8 0 0  5 0 0  5.2 0 0  5.4 0 0  5.6 0 0  5.8 0 0  6 0 0  6.2 0 0  6.4 0 0  6.6 0 0  6.8 0 0  7 0 0  7.2 0 0  7.4 0 0  7.6 0 0  7.8 0 0  8 0 0  8.199999999999999 0 0  8.4 0 0  8.6 0 0  8.800000000000001 0 0  9 0 0  9.199999999999999 0 0  9.4 0 0  9.6 0 0  9.800000000000001 0 0  10 0 0  0 0.2 0  0.2 0.2 0  0.4 0.2 0  0.6 0.2 0  0.8 0.2 0  1 0.2 0  1.2 0.2 0  1.4 0.2 0  1.6 0.2 0  1.8 0.2 0  2 0.2 0  2.2 0.2 0  2.4 0.2 0  2.6 0.2 0  2.8 0.2 0  3 0.2 0  3.2 0.2 0  3.4 0.2 0  3.6 0.2 0  3.8 0.2 0  4 0.2 0  4.2 0.2 0  4.4 0.2 0  4.6 0.2 0  4.8 0.2 0  5 0.2 0  5.2 0.2 0  5.4 0.2 0  5.6 0.2 0  5.8 0.2 0  6 0.2 0  6.2 0.2 0  6.4 0.2 0  6.6 0.2 0  6.8 0.2 0  7 0.2 0  7.2 0.2 0  7.4 0.2 0  7.6 0.2 0  7.8 0.2 0  8 0.2 0  8.199999999999999 0.2 0  8.4 0.2 0  8.6 0.2 0  8.800000000000001 0.2 0  9 0.2 0  9.199999999999999 0.2 0  9.4 0.2 0  9.6 0.2 0  9.800000000000001 0.2 0  10 0.2 0  0 0.4 0  0.2 0.4 0  0.4 0.4 0  0.6 0.4 0  0.8 0.4 0  1 0.4 0  1.2 0.4 0  1.4 0.4 0  1.6 0.4 0  1.8 0.4 0  2 0.4 0  2.2 0.4 0  2.4 0.4 0  2.6 0.4 0  2.8 0.4 0  3 0.4 0  3.2 0.4 0  3.4 0.4 0  3.6 0.4 0  3.8 0.4 0  4 0.4 0  4.2 0.4 0  4.4 0.4 0  4.6 0.4 0  4.8 0.4 0  5 0.4 0  5.2 0.4 0  5.4 0.4 0  5.6 0.4 0  5.8 0.4 0  6 0.4 0  6.2 0.4 0  6.4 0.4 0  6.6 0.4 0  6.8 0.4 0  7 0.4 0  7.2 0.4 0  7.4 0.4 0  7.6 0.4 0  7.8 0.4 0  8 0.4 0  8.199999999999999 0.4 0  8.4 0.4 0  8.6 0.4 0  8.800000000000001 0.4 0  9 0.4 0  9.199999999999999 0.4 0  9.4 0.4 0  9.6 0.4 0  9.800000000000001 0.4 0  10 0.4 0  0 0.6 0  0.2 0.6 0  0.4 0.6 0  0.6 0.6 0  0.8 0.6 0  1 0.6 0  1.2 0.6 0  1.4 0.6 0  1.6 0.6 0  1.8 0.6 0  2 0.6 0  2.2 0.6 0  2.4 0.6 0  2.6 0.6 0  2.8 0.6 0  3 0.6 0  3.2 0.6 0  3.4 0.6 0  3.6 0.6 0  3.8 0.6 0  4 0.6 0  4.2 0.6 0  4.4 0.6 0  4.6 0.6 0  4.8 0.6 0  5 0.6 0  5.2 0.6 0  5.4 0.6 0  5.6 0.6 0  5.8 0.6 0  6 0.6 0  6.2 0.6 0  6.4 0.6 0  6.6 0.6 0  6.8 0.6 0  7 0.6 0  7.2 0.6 0  7.4 0.6 0  7.6 0.6 0  7.8 0.6 0  8 0.6 0  8.199999999999999 0.6 0  8.4 0.6 0  8.6 0.6 0  8.800000000000001 0.6 0  9 0.6 0  9.199999999999999 0.6 0  9.4 0.6 0  9.6 0.6 0  9.800000000000001 0.6 0  10 0.6 0  0 0.8 0  0.2 0.8 0  0.4 0.8 0  0.6 0.8 0  0.8 0.8 0  1 0.8 0  1.2 0.8 0  1.4 0.8 0  1.6 0.8 0  1.8 0.8 0  2 0.8 0  2.2 0.8 0  2.4 0.8 0  2.6 0.8 0  2.8 0.8 0  3 0.8 0  3.2 0.8 0  3.4 0.8 0  3.6 0.8 0  3.8 0.8 0  4 0.8 0  4.2 0.8 0  4.4 0.8 0  4.6 0.8 0  4.8 0.8 0  5 0.8 0  5.2 0.8 0  5.4 0.8 0  5.6 0.8 0  5.8 0.8 0  6 0.8 0  6.2 0.8 0  6.4 0.8 0  6.6 0.8 0  6.8 0.8 0  7 0.8 0  7.2 0.8 0  7.4 0.8 0  7.6 0.8 0  7.8 0.8 0  8 0.8 0  8.199999999999999 0.8 0  8.4 0.8 0  8.6 0.8 0  8.800000000000001 0.8 0  9 0.8 0  9.199999999999999 0.8 0  9.4 0.8 0  9.6 0.8 0  9.800000000000001 0.8 0  10 0.8 0  0 1 0  0.2 1 0  0.4 1 0  0.6 1 0  0.8 1 0  1 1 0  1.2 1 0  1.4 1 0  1.6 1 0  1.8 1 0  2 1 0  2.2 1 0  2.4 1 0  2.6 1 0  2.8 1 0  3 1 0  3.2 1 0  3.4 1 0  3.6 1 0  3.8 1 0  4 1 0  4.2 1 0  4.4 1 0  4.6 1 0  4.8 1 0  5 1 0  5.2 1 0  5.4 1 0  5.6 1 0  5.8 1 0  6 1 0  6.2 1 0  6.4 1 0  6.6 1 0  6.8 1 0  7 1 0  7.2 1 0  7.4 1 0  7.6 1 0  7.8 1 0  8 1 0  8.199999999999999 1 0  8.4 1 0  8.6 1 0  8.800000000000001 1 0  9 1 0  9.199999999999999 1 0  9.4 1 0  9.6 1 0  9.800000000000001 1 0  10 1 0  0 1.2 0  0.2 1.2 0  0.4 1.2 0  0.6 1.2 0  0.8 1.2 0  1 1.2 0  1.2 1.2 0  1.4 1.2 0  1.6 1.2 0  1.8 1.2 0  2 1.2 0  2.2 1.2 0  2.4 1.2 0  2.6 1.2 0  2.8 1.2 0  3 1.2 0  3.2 1.2 0  3.4 1.2 0  3.6 1.2 0  3.8 1.2 0  4 1.2 0  4.2 1.2 0  4.4 1.2 0  4.6 1.2 0  4.8 1.2 0  5 1.2 0  5.2 1.2 0  5.4 1.2 0  5.6 1.2 0  5.8 1.2 0  6 1.2 0  6.2 1.2 0  6.4 1.2 0  6.6 1.2 0  6.8 1.2 0  7 1.2 0  7.2 1.2 0  7.4 1.2 0  7.6 1.2 0  7.8 1.2 0  8 1.2 0  8.199999999999999 1.2 0  8.4 1.2 0  8.6 1.2 0  8.800000000000001 1.2 0  9 1.2 0  9.199999999999999 1.2 0  9.4 1.2 0  9.6 1.2 0  9.800000000000001 1.2 0  10 1.2 0  0 1.4 0  0.2 1.4 0  0.4 1.4 0  0.6 1.4 0  0.8 1.4 0  1 1.4 0  1.2 1.4 0  1.4 1.4 0  1.6 1.4 0  1.8 1.4 0  2 1.4 0  2.2 1.4 0  2.4 1.4 0  2.6 1.4 0  2.8 1.4 0  3 1.4 0  3.2 1.4 0  3.4 1.4 0  3.6 1.4 0  3.8 1.4 0  4 1.4 0  4.2 1.4 0  4.4 1.4 0  4.6 1.4 0  4.8 1.4 0  5 1.4 0  5.2 1.4 0  5.4 1.4 0  5.6 1.4 0  5.8 1.4 0  6 1.4 0  6.2 1.4 0  6.4 1.4 0  6.6 1.4 0  6.8 1.4 0  7 1.4 0  7.2 1.4 0  7.4 1.4 0  7.6 1.4 0  7.8 1.4 0  8 1.4 0  8.199999999999999 1.4 0  8.4 1.4 0  8.6 1.4 0  8.800000000000001 1.4 0  9 1.4 0  9.199999999999999 1.4 0  9.4 1.4 0  9.6 1.4 0  9.800000000000001 1.4 0  10 1.4 0  0 1.6 0  0.2 1.6 0  0.4 1.6 0  0.6 1.6 0  0.8 1.6 0  1 1.6 0  1.2 1.6 0  1.4 1.6 0  1.6 1.6 0  1.8 1.6 0  2 1.6 0  2.2 1.6 0  2.4 1.6 0  2.6 1.6 0  2.8 1.6 0  3 1.6 0  3.2 1.6 0  3.4 1.6 0  3.6 1.6 0  3.8 1.6 0  4 1.6 0  4.2 1.6 0  4.4 1.6 0  4.6 1.6 0  4.8 1.6 0  5 1.6 0  5.2 1.6 0  5.4 1.6 0  5.6 1.6 0  5.8 1.6 0  6 1.6 0  6.2 1.6 0  6.4 1.6 0  6.6 1.6 0  6.8 1.6 0  7 1.6 0  7.2 1.6 0  7.4 1.6 0  7.6 1.6 0  7.8 1.6 0  8 1.6 0  8.199999999999999 1.6 0  8.4 1.6 0  8.6 1.6 0  8.800000000000001 1.6 0  9 1.6 0  9.199999999999999 1.6 0  9.4 1.6 0  9.6 1.6 0  9.800000000000001 1.6 0  10 1.6 0  0 1.8 0  0.2 1.8 0  0.4 1.8 0  0.6 1.8 0  0.8 1.8 0  1 1.8 0  1.2 1.8 0  1.4 1.8 0  1.6 1.8 0  1.8 1.8 0  2 1.8 0  2.2 1.8 0  2.4 1.8 0  2.6 1.8 0  2.8 1.8 0  3 1.8 0  3.2 1.8 0  3.4 1.8 0  3.6 1.8 0  3.8 1.8 0  4 1.8 0  4.2 1.8 0  4.4 1.8 0  4.6 1.8 0  4.8 1.8 0  5 1.8 0  5.2 1.8 0  5.4 1.8 0  5.6 1.8 0  5.8 1.8 0  6 1.8 0  6.2 1.8 0  6.4 1.8 0  6.6 1.8 0  6.8 1.8 0  7 1.8 0  7.2 1.8 0  7.4 1.8 0  7.6 1.8 0  7.8 1.8 0  8 1.8 0  8.199999999999999 1.8 0  8.4 1.8 0  8.6 1.8 0  8.800000000000001 1.8 0  9 1.8 0  9.199999999999999 1.8 0  9.4 1.8 0  9.6 1.8 0  9.800000000000001 1.8 0  10 1.8 0  0 2 0  0.2 2 0  0.4 2 0  0.6 2 0  0.8 2 0  1 2 0  1.2 2 0  1.4 2 0  1.6 2 0  1.8 2 0  2 2 0  2.2 2 0  2.4 2 0  2.6 2 0  2.8 2 0  3 2 0  3.2 2 0  3.4 2 0  3.6 2 0  3.8 2 0  4 2 0  4.2 2 0  4.4 2 0  4.6 2 0  4.8 2 0  5 2 0  5.2 2 0  5.4 2 0  5.6 2 0  5.8 2 0  6 2 0  6.2 2 0  6.4 2 0  6.6 2 0  6.8 2 0  7 2 0  7.2 2 0  7.4 2 0  7.6 2 0  7.8 2 0  8 2 0  8.199999999999999 2 0  8.4 2 0  8.6 2 0  8.800000000000001 2 0  9 2 0  9.199999999999999 2 0  9.4 2 0  9.6 2 0  9.800000000000001 2 0  10 2 0  0 2.2 0  0.2 2.2 0  0.4 2.2 0  0.6 2.2 0  0.8 2.2 0  1 2.2 0  1.2 2.2 0  1.4 2.2 0  1.6 2.2 0  1.8 2.2 0  2 2.2 0  2.2 2.2 0  2.4 2.2 0  2.6 2.2 0  2.8 2.2 0  3 2.2 0  3.2 2.2 0  3.4 2.2 0  3.6 2.2 0  3.8 2.2 0  4 2.2 0  4.2 2.2 0  4.4 2.2 0  4.6 2.2 0  4.8 2.2 0  5 2.2 0  5.2 2.2 0  5.4 2.2 0  5.6 2.2 0  5.8 2.2 0  6 2.2 0  6.2 2.2 0  6.4 2.2 0  6.6 2.2 0  6.8 2.2 0  7 2.2 0  7.2 2.2 0  7.4 2.2 0  7.6 2.2 0  7.8 2.2 0  8 2.2 0  8.199999999999999 2.2 0  8.4 2.2 0  8.6 2.2 0  8.800000000000001 2.2 0  9 2.2 0  9.199999999999999 2.2 0  9.4 2.2 0  9.6 2.2 0  9.800000000000001 2.2 0  10 2.2 0  0 2.4 0  0.2 2.4 0  0.4 2.4 0  0.6 2.4 0  0.8 2.4 0  1 2.4 0  1.2 2.4 0  1.4 2.4 0  1.6 2.4 0  1.8 2.4 0  2 2.4 0  2.2 2.4 0  2.4 2.4 0  2.6 2.4 0  2.8 2.4 0  3 2.4 0  3.2 2.4 0  3.4 2.4 0  3.6 2.4 0  3.8 2.4 0  4 2.4 0  4.2 2.4 0  4.4 2.4 0  4.6 2.4 0  4.8 2.4 0  5 2.4 0  5.2 2.4 0  5.4 2.4 0  5.6 2.4 0  5.8 2.4 0  6 2.4 0  6.2 2.4 0  6.4 2.4 0  6.6 2.4 0  6.8 2.4 0  7 2.4 0  7.2 2.4 0  7.4 2.4 0  7.6 2.4 0  7.8 2.4 0  8 2.4 0  8.199999999999999 2.4 0  8.4 2.4 0  8.6 2.4 0  8.800000000000001 2.4 0  9 2.4 0  9.199999999999999 2.4 0  9.4 2.4 0  9.6 2.4 0  9.800000000000001 2.4 0  10 2.4 0  0 2.6 0  0.2 2.6 0  0.4 2.6 0  0.6 2.6 0  0.8 2.6 0  1 2.6 0  1.2 2.6 0  1.4 2.6 0  1.6 2.6 0  1.8 2.6 0  2 2.6 0  2.2 2.6 0  2.4 2.6 0  2.6 2.6 0  2.8 2.6 0  3 2.6 0  3.2 2.6 0  3.4 2.6 0  3.6 2.6 0  3.8 2.6 0  4 2.6 0  4.2 2.6 0  4.4 2.6 0  4.6 2.6 0  4.8 2.6 0  5 2.6 0  5.2 2.6 0  5.4 2.6 0  5.6 2.6 0  5.8 2.6 0  6 2.6 0  6.2 2.6 0  6.4 2.6 0  6.6 2.6 0  6.8 2.6 0  7 2.6 0  7.2 2.6 0  7.4 2.6 0  7.6 2.6 0  7.8 2.6 0  8 2.6 0  8.199999999999999 2.6 0  8.4 2.6 0  8.6 2.6 0  8.800000000000001 2.6 0  9 2.6 0  9.199999999999999 2.6 0  9.4 2.6 0  9.6 2.6 0  9.800000000000001 2.6 0  10 2.6 0  0 2.8 0  0.2 2.8 0  0.4 2.8 0  0.6 2.8 0  0.8 2.8 0  1 2.8 0  1.2 2.8 0  1.4 2.8 0  1.6 2.8 0  1.8 2.8 0  2 2.8 0  2.2 2.8 0  2.4 2.8 0  2.6 2.8 0  2.8 2.8 0  3 2.8 0  3.2 2.8 0  3.4 2.8 0  3.6 2.8 0  3.8 2.8 0  4 2.8 0  4.2 2.8 0  4.4 2.8 0  4.6 2.8 0  4.8 2.8 0  5 2.8 0  5.2 2.8 0  5.4 2.8 0  5.6 2.8 0  5.8 2.8 0  6 2.8 0  6.2 2.8 0  6.4 2.8 0  6.6 2.8 0  6.8 2.8 0  7 2.8 0  7.2 2.8 0  7.4 2.8 0  7.6 2.8 0  7.8 2.8 0  8 2.8 0  8.199999999999999 2.8 0  8.4 2.8 0  8.6 2.8 0  8.800000000000001 2.8 0  9 2.8 0  9.199999999999999 2.8 0  9.4 2.8 0  9.6 2.8 0  9.800000000000001 2.8 0  10 2.8 0  0 3 0  0.2 3 0  0.4 3 0  0.6 3 0  0.8 3 0  1 3 0  1.2 3 0  1.4 3 0  1.6 3 0  1.8 3 0  2 3 0  2.2 3 0  2.4 3 0  2.6 3 0  2.8 3 0  3 3 0  3.2 3 0  3.4 3 0  3.6 3 0  3.8 3 0  4 3 0  4.2 3 0  4.4 3 0  4.6 3 0  4.8 3 0  5 3 0  5.2 3 0  5.4 3 0  5.6 3 0  5.8 3 0  6 3 0  6.2 3 0  6.4 3 0  6.6 3 0  6.8 3 0  7 3 0  7.2 3 0  7.4 3 0  7.6 3 0  7.8 3 0  8 3 0  8.199999999999999 3 0  8.4 3 0  8.6 3 0  8.800000000000001 3 0  9 3 0  9.199999999999999 3 0  9.4 3 0  9.6 3 0  9.800000000000001 3 0  10 3 0  0 3.2 0  0.2 3.2 0  0.4 3.2 0  0.6 3.2 0  0.8 3.2 0  1 3.2 0  1.2 3.2 0  1.4 3.2 0  1.6 3.2 0  1.8 3.2 0  2 3.2 0  2.2 3.2 0  2.4 3.2 0  2.6 3.2 0  2.8 3.2 0  3 3.2 0  3.2 3.2 0  3.4 3.2 0  3.6 3.2 0  3.8 3.2 0  4 3.2 0  4.2 3.2 0  4.4 3.2 0  4.6 3.2 0  4.8 3.2 0  5 3.2 0  5.2 3.2 0  5.4 3.2 0  5.6 3.2 0  5.8 3.2 0  6 3.2 0  6.2 3.2 0  6.4 3.2 0  6.6 3.2 0  6.8 3.2 0  7 3.2 0  7.2 3.2 0  7.4 3.2 0  7.6 3.2 0  7.8 3.2 0  8 3.2 0  8.199999999999999 3.2 0  8.4 3.2 0  8.6 3.2 0  8.800000000000001 3.2 0  9 3.2 0  9.199999999999999 3.2 0  9.4 3.2 0  9.6 3.2 0  9.800000000000001 3.2 0  10 3.2 0  0 3.4 0  0.2 3.4 0  0.4 3.4 0  0.6 3.4 0  0.8 3.4 0  1 3
[...]
<PointData  Scalars="f_15"> 
<DataArray  type="Float64"  Name="f_15"  format="ascii">7.3176453755635096e-01  7.3054402850521294e-01  7.2483505887846822e-01  7.1827084855920642e-01  7.1191562832577326e-01  7.0607814307959982e-01  7.0081241539317030e-01  6.9608316107612889e-01  6.9182716330296345e-01  6.8797725651348807e-01  6.8447152270118605e-01  6.8125631803090747e-01  6.7828668692257332e-01  6.7552570875873452e-01  6.7294346679770078e-01  6.7051594711918905e-01  6.6822399950530975e-01  6.6605240975966407e-01  6.6398909451792487e-01  6.6202441227681919e-01  6.6015057728552229e-01  6.5836116077733031e-01  6.5665066411129835e-01  6.5501414940251645e-01  6.5344691447043213e-01  6.5194420009302079e-01  6.5050091846372704e-01  6.4911139234492576e-01  6.4776909468691368e-01  6.4646637846525801e-01  6.4519418625626168e-01  6.4394172876523059e-01  6.4269612141648513e-01  6.4144196871312320e-01  6.4016088832000406e-01  6.3883097247288256e-01  6.3742619666552058e-01  6.3591581083686255e-01  6.3426379831929025e-01  6.3242858537385938e-01  6.3036337327131975e-01  6.2801783121515908e-01  6.2534259860366370e-01  6.2229942253800430e-01  6.1888242541540028e-01  6.1516116423707867e-01  6.1136620022988675e-01  6.0805805972863480e-01  6.0646495063199046e-01  6.0919773126769816e-01  6.2201349250158688e-01  7.2460533835501240e-01  7.2312230830660695e-01  7.1883813206300007e-01  7.1358987752828174e-01  7.0826572882545147e-01  7.0322196172472096e-01  6.9857372000721751e-01  6.9433273341271606e-01  6.9046912736506050e-01  6.8693911802025054e-01  6.8369732326464649e-01  6.8070197829850687e-01  6.7791682415723697e-01  6.7531143969789975e-01  6.7286087150945606e-01  6.7054498026350451e-01  6.6834770791569409e-01  6.6625636254996612e-01  6.6426096288190195e-01  6.6235365658835721e-01  6.6052821276023888e-01  6.5877958222684463e-01  6.5710351677258938e-01  6.5549623749023156e-01  6.5395414268488272e-01  6.5247354632804189e-01  6.5105043879395463e-01  6.4968026238266108e-01  6.4835769494081019e-01  6.4707643581422580e-01  6.4582898957931156e-01  6.4460644480210660e-01  6.4339824795159850e-01  6.4219197733897637e-01  6.4097312985992638e-01  6.3972494652152667e-01  6.3842832482869993e-01  6.3706190321722644e-01  6.3560246551676913e-01  6.3402592084234566e-01  6.3230930063751523e-01  6.3043454309671076e-01  6.2839542445803964e-01  6.2621007151530750e-01  6.2394347942294981e-01  6.2174818542902421e-01  6.1993828610241941e-01  6.1912531937410975e-01  6.2046945641662721e-01  6.2614105337643289e-01  6.4010560635350289e-01  7.2301137928546011e-01  7.1984586388425253e-01  7.1585612080384486e-01  7.1113951150137689e-01  7.0639901279269324e-01  7.0189300580010139e-01  6.9770904344626317e-01  6.9385905746720555e-01  6.9032198449901172e-01  6.8706431467812168e-01  6.8405002918061153e-01  6.8124522001479804e-01  6.7862000861424343e-01  6.7614909684224045e-01  6.7381164354607215e-01  6.7159083087269977e-01  6.6947331153848633e-01  6.6744863552348466e-01  6.6550870440848264e-01  6.6364727429399295e-01  6.6185951359761952e-01  6.6014161440136521e-01  6.5849045229904579e-01  6.5690328812744614e-01  6.5537750456920951e-01  6.5391037084636694e-01  6.5249882929872272e-01  6.5113929844502494e-01  6.4982748815927815e-01  6.4855822396400997e-01  6.4732527936103035e-01  6.4612121794498845e-01  6.4493725133762259e-01  6.4376312561422533e-01  6.4258705922775416e-01  6.4139577160303407e-01  6.4017466695924274e-01  6.3890827797747274e-01  6.3758113760480195e-01  6.3617934954461497e-01  6.3469329444778888e-01  6.3312218439645229e-01  6.3148164344677216e-01  6.2981629376389592e-01  6.2822073686538271e-01  6.2687483928199828e-01  6.2610376632111575e-01  6.2648127301738787e-01  6.2900839792346552e-01  6.3541974172358884e-01  6.4869224630434497e-01  7.2314926378208233e-01  7.1860844538664925e-01  7.1471446626646307e-01  7.1044366021031657e-01  7.0602142272534429e-01  7.0183112151958515e-01  6.9794872153835741e-01  6.9437109175541545e-01  6.9107144725485192e-01  6.8801664907357618e-01  6.8517380267630756e-01  6.8251298001673577e-01  6.8000823886909956e-01  6.7763781336153062e-01  6.7538389211621053e-01  6.7323220252867444e-01  6.7117152043560591e-01  6.6919317000931355e-01  6.6729054759035744e-01  6.6545868513378670e-01  6.6369385858498442e-01  6.6199324072406074e-01  6.6035459498390403e-01  6.5877600534596270e-01  6.5725563698219058e-01  6.5579152245290218e-01  6.5438136878317932e-01  6.5302238154834658e-01  6.5171110322715042e-01  6.5044326465073288e-01  6.4921365061529390e-01  6.4801598400534166e-01  6.4684283765807038e-01  6.4568559054166486e-01  6.4453445590872516e-01  6.4337862586993655e-01  6.4220660228796034e-01  6.4100682261030673e-01  6.3976874843931897e-01  6.3848467576678680e-01  6.3715266764149536e-01  6.3578123401840281e-01  6.3439674372805188e-01  6.3305514525518292e-01  6.3186056762047460e-01  6.3099508005224114e-01  6.3076686468244536e-01  6.3168926797178859e-01  6.3461230375707178e-01  6.4094456613636053e-01  6.5304060364644478e-01  7.2396560043875446e-01  7.1844367141762799e-01  7.1445555053997134e-01  7.1066010112714484e-01  7.0667458441413333e-01  7.0271294358738257e-01  6.9902207507993552e-01  6.9562083513887851e-01  6.9248045120101087e-01  6.8956503934587499e-01  6.8684122705579620e-01  6.8428026540068587e-01  6.8185817831749040e-01  6.7955537756561091e-01  6.7735613784575677e-01  6.7524805134365062e-01  6.7322150302371364e-01  6.7126918312766015e-01  6.6938564344009166e-01  6.6756689883065667e-01  6.6581007260444924e-01  6.6411308242176570e-01  6.6247436260041492e-01  6.6089261824650447e-01  6.5936660670298819e-01  6.5789494214945732e-01  6.5647591978032405e-01  6.5510735683926880e-01  6.5378644896615856e-01  6.5250964196232852e-01  6.5127252143752690e-01  6.5006972622845682e-01  6.4889489651221222e-01  6.4774067496901500e-01  6.4659879033906498e-01  6.4546026897750419e-01  6.4431584406913012e-01  6.4315666779730729e-01  6.4197548468073140e-01  6.4076850328753199e-01  6.3953832245122066e-01  6.3829844936528224e-01  6.3708022800141073e-01  6.3594344195312247e-01  6.3499258162973471e-01  6.3440198410759951e-01  6.3445516713607752e-01  6.3560748320886251e-01  6.3858844054427766e-01  6.4457513511820930e-01  6.5550672357196149e-01  7.2512214240016670e-01  7.1890265799635833e-01  7.1474996748676756e-01  7.1124485201559484e-01  7.0777741319329113e-01  7.0419463184170950e-01  7.0067772691652441e-01  6.9740042513949119e-01  6.9436519779333150e-01  6.9154110478376929e-01  6.8889504910444532e-01  6.8639851773091998e-01  6.8402836840521686e-01  6.8176624819107989e-01  6.7959780696548189e-01  6.7751197690178744e-01  6.7550035866983482e-01  6.7355670268138845e-01  6.7167646707001749e-01  6.6985643720118970e-01  6.6809439531362180e-01  6.6638883169199226e-01  6.6473869063105995e-01  6.6314314571401611e-01  6.6160139987510480e-01  6.6011250654002995e-01  6.5867520897455734e-01  6.5728779594226361e-01  6.5594797301117902e-01  6.5465275053197547e-01  6.5339835168271909e-01  6.5218014738627750e-01  6.5099262985601436e-01  6.4982944372934037e-01  6.4868350423373866e-01  6.4754724707199973e-01  6.4641307684440708e-01  6.4527411294949033e-01  6.4412537859880314e-01  6.4296564672094547e-01  6.4180025671343899e-01  6.4064536510882042e-01  6.3953431922349224e-01  6.3852719418689197e-01  6.3772509829744106e-01  6.3729179698145721e-01  6.3748686874715232e-01  6.3871770872448386e-01  6.4162390544455061e-01  6.4722112800409737e-01  6.5716612856740131e-01  7.2648882794688430e-01  7.1976147813914293e-01  7.1543162556107054e-01  7.1207802376305851e-01  7.0899277802830940e-01  7.0587570942464439e-01  7.0267148791305434e-01  6.9952896041912305e-01  6.9657699619371649e-01  6.9381559819525274e-01  6.9121943903085525e-01  6.8876213036451073e-01  6.8642151019232733e-01  6.8418012871385281e-01  6.8202461295693317e-01  6.7994488986034318e-01  6.7793350212791081e-01  6.7598504693863870e-01  6.7409571888109798e-01  6.7226293291166128e-01  6.7048500762459207e-01  6.6876089447898923e-01  6.6708994280447165e-01  6.6547169333057643e-01  6.6390569500504060e-01  6.6239134133940780e-01  6.6092772372980313e-01  6.5951350037155709e-01  6.5814678072031485e-01  6.5682502716210800e-01  6.5554497789820176e-01  6.5430259836604554e-01  6.5309307326874988e-01  6.5191085811738092e-01  6.5074981900846718e-01  6.4960350344093298e-01  6.4846560513561236e-01  6.4733071465545589e-01  6.4619548891630918e-01  6.4506043205127139e-01  6.4393256617690875e-01  6.4282939718752385e-01  6.4178477083446717e-01  6.4085750865360369e-01  6.4014418723569044e-01  6.3979822559736754e-01  6.4005887846408793e-01  6.4129645854347950e-01  6.4408564115122513e-01  6.4933077429073705e-01  6.5849671601984772e-01  7.2800309229487137e-01  7.2089572420687287e-01  7.1639865436171368e-01  7.1311170204717345e-01  7.1028335228651529e-01  7.0753846394564590e-01  7.0472567919324225e-01  7.0183525014879855e-01  6.9898845854077640e-01  6.9628431455922590e-01  6.9372479775003626e-01  6.9129193202128791e-01  6.8896657048172316e-01  6.8673272073271929e-01  6.8457802953704594e-01  6.8249330563017407e-01  6.8047189349032322e-01  6.7850911034589734e-01  6.7660178213249678e-01  6.7474786692807864e-01  6.7294614628616145e-01  6.7119596736000864e-01  6.6949702301033576e-01  6.6784916084172552e-01  6.6625221493974474e-01  6.6470585615803279e-01  6.6320945841418999e-01  6.6176197986414587e-01  6.6036185928171331e-01  6.5900692971492636e-01  6.5769435379225660e-01  6.5642058824032834e-01  6.5518138968304185e-01  6.5397188020603469e-01  6.5278670029720387e-01  6.5162028973682895e-01  6.5046735538830103e-01  6.4932361088087964e-01  6.4818691014388174e-01  6.4705894952135179e-01  6.4594778931814911e-01  6.4487155733717028e-01  6.4386386510279170e-01  6.4298172938058207e-01  6.4231721759428428e-01  6.4201476418276093e-01  6.4229741963692255e-01  6.4350779997822516e-01  6.4617454741031766e-01  6.5112588875680055e-01  6.5969741252171132e-01  7.2962680425677406e-01  7.2222802804372022e-01  7.1758116062498400e-01  7.1431220842585619e-01  7.1165086069293360e-01  7.0918027549571871e-01  7.0669635304707046e-01  7.0412530001331175e-01  7.0147949027858980e-01  6.9885780314681423e-01  6.9633827251185731e-01  6.9392579630386630e-01  6.9160923525617901e-01  6.8937589452507098e-01  6.8721510425895449e-01  6.8511876113564851e-01  6.8308104361634148e-01  6.8109796167680414e-01  6.7916693051204058e-01  6.7728641000747380e-01  6.7545560783022296e-01  6.7367423375457491e-01  6.7194229293473806e-01  6.7025990849242101e-01  6.6862716657038845e-01  6.6704397932510784e-01  6.6550996320219158e-01  6.6402433144397999e-01  6.6258580134859080e-01  6.6119251857823536e-01  6.5984200307109664e-01  6.5853112416632775e-01  6.5725611681310203e-01  6.5601265674167419e-01  6.5479602095992595e-01  6.5360137191466450e-01  6.5242422054090632e-01  6.5126114723744410e-01  6.5011089351091544e-01  6.4897598509132703e-01  6.4786511676902847e-01  6.4679663161933654e-01  6.4580358268725535e-01  6.4494110981885755e-01  6.4429726640112572e-01  6.4400912364718454e-01  6.4428723280679789e-01  6.4545389872306191e-01  6.4800542388822269e-01  6.5271831747187170e-01  6.6084206985794036e-01  7.3133212483676246e-01  7.2370540534717775e-01  7.1892768816142560e-01  7.1565011409794710e-01  7.1309538647676018e-01  7.1082251611612235e-01  7.0859497316198239e-01  7.0630237615411762e-01  7.0391348931604125e-01  7.0145127391642692e-01  6.9899668853585029e-01  6.9661245420746909e-01  6.9430607168591030e-01  6.9207200819539427e-01  6.8990282875908271e-01  6.8779216270026877e-01  6.8573528643082216e-01  6.8372900366578904e-01  6.8177135136945877e-01  6.7986129645628579e-01  6.7799846791184182e-01  6.7618292981326056e-01  6.7441498954902046e-01  6.7269503383282614e-01  6.7102338629716474e-01  6.6940018227470821e-01  6.6782525815254712e-01  6.6629805431929379e-01  6.6481753233374541e-01  6.6338210872438463e-01  6.6198961002933099e-01  6.6063725660953021e-01  6.5932168679763048e-01  6.5803903858472823e-01  6.5678511397651884e-01  6.5555566230567952e-01  6.5434683448401165e-01  6.5315588230588262e-01  6.5198220826719533e-01  6.5082891621882122e-01  6.4970507835659141e-01  6.4862903094965685e-01  6.4763315966585744e-01  6.4677087132307942e-01  6.4612683981337093e-01  6.4583229011062671e-01  6.4608830448396437e-01  6.4720242833144026e-01  6.4964834164819873e-01  6.5416758249767593e-01  6.6195298057079743e-01  7.3309657425875907e-01  7.2528886211313559e-01  7.2039853227499151e-01  7.1709884362884502e-01  7.1461120394163313e-01  7.1248038078152942e-01  7.1044890259753146e-01  7.0838254670300937e-01  7.0622457558960172e-01  7.0396775140369661e-01  7.0163960158580230e-01  6.9930679503097870e-01  6.9702053961234756e-01  6.9479025225721125e-01  6.9261468331286535e-01  6.9049045725984992e-01  6.8841452335922448e-01  6.8638474842036146e-01  6.8439991901674002e-01  6.8245957042265160e-01  6.8056378288656860e-01  6.7871298964500837e-01  6.7690780730861710e-01  6.7514888815451113e-01  6.7343679106085241e-01  6.7177186795260768e-01  6.7015416370571734e-01  6.6858332881202653e-01  6.6705854559782718e-01  6.6557847049483465e-01  6.6414119697380647e-01  6.6274424653705377e-01  6.6138459898309876e-01  6.6005877847827232e-01  6.5876301943780324e-01  6.5749354672065585e-01  6.5624701943292152e-01  6.5502120853302070e-01  6.5381600815595609e-01  6.5263492333201678e-01  6.5148723935137309e-01  6.5039117181403205e-01  6.4937844130641131e-01  6.4850094865710128e-01  6.4784061294527229e-01  6.4752410333002930e-01  6.4774539965645139e-01  6.4880136535482735e-01  6.5114987771995159e-01  6.5550891615026319e-01  6.6303448557958167e-01  7.3490114775654625e-01  7.2694822294488581e-01  7.2196204181705104e-01  7.1863456246623825e-01  7.1618857838734973e-01  7.1416041784254425e-01  7.1227874480888120e-01  7.1039294670488407e-01  7.0842902140189468e-01  7.0636177884761153e-01  7.0419755940112472e-01  7.0196519458957962e-01  6.9971992888532186e-01  6.9750410547639907e-01  6.9532834904264751e-01  6.9319451266882570e-01  6.9110222466808058e-01  6.8905090491342935e-01  6.8704033948339438e-01  6.8507076391876154e-01  6.8314278179266619e-01  6.8125723640063374e-01  6.7941507753533481e-01  6.7761723694233533e-01  6.7586451571152784e-01  6.7415748356856797e-01  6.7249638952043700e-01  6.7088108391406864e-01  6.6931095308821231e-01  6.6778486929816916e-01  6.6630116055150990e-01  6.6485760762059853e-01  6.6345147911375679e-01  6.6207962053529057e-01  6.6073862035838116e-01  6.5942508613080686e-01  6.5813607775327865e-01  6.5686976510012396e-01  6.5562640578408193e-01  6.5440978030198038e-01  6.5322928284533532e-01  6.5210295818787867e-01  6.5106191829648197e-01  6.5015680276756282e-01  6.4946733186470240e-01  6.4911666732895268e-01  6.4929349309253059e-01  6.5028695505271550e-01  6.5254389635835430e-01  6.5676648808461024e-01  6.6408714123831192e-01  7.3672945929565292e-01  7.2865930625611119e-01  7.2359237465698323e-01  7.2023607778321042e-01  7.1781574966874817e-01  7.1586276424513784e-01  7.1409646846716135e-01  7.1235469750507086e-01  7.1055106733597162e-01  7.0864788882475016e-01  7.0663872848764242e-01  7.0453740582000468e-01  7.0237226649606022e-01  7.0018937303397177e-01  6.9802410809888182e-01  6.9588769996734201e-01  6.9378413657796389e-01  6.9171518190323800e-01  6.8968202767746511e-01  6.8768582976849402e-01  6.8572783912127955e-01  6.8380938147283898e-01  6.8193178329352200e-01  6.8009628224938612e-01  6.7830393711640224e-01  6.7655554286549002e-01  6.7485155329751412e-01  6.7319201280896679e-01  6.7157649926660135e-01  6.7000408106898190e-01  6.6847329317745330e-01  6.6698213932454331e-01  6.6552813101958408e-01  6.6410837877896278e-01  6.6271975779932457e-01  6.6135917990183557e-01  6.6002401720838721e-01  6.5871274244082945e-01  6.5742587865291413e-01  6.5616739183020334e-01  6.5494671998129450e-01  6.5378172364651055e-01  6.5270298531457738e-01  6.5176011530891964e-01  6.5103110632172390e-01  6.5063644513003949e-01  6.5076088565139156e-01  6.5168800791337322e-01  6.5385696126069437e-01  6.5795937200590815e-01  6.6511281571630299e-01  7.3856724159439135e-01  7.3040223161393636e-01  7.2526802735912199e-01  7.2188462206162618e-01  7.1948025745167754e-01  7.1758347657691846e-01  7.1590730589344964e-01  7.1428132008141665e-01  7.1261002908922799e-01  7.1084649103911979e-01  7.0897517317702086e-01  7.0700071508435947e-01  7.0494074749696189e-01  7.0282216755656912e-01  7.0068361213729602e-01  6.9855490899970429e-01  6.9644742144633454e-01  6.9436651614224831e-01  6.9231540622664656e-01  6.9029649822385397e-01  6.8831187787173187e-01  6.8636346383084668e-01  6.8445302619473025e-01  6.8258214968070186e-01  6.8075217561659951e-01  6.7896413790463983e-01  6.7721870022764408e-01  6.7551609868101348e-01  6.7385609321646889e-01  6.7223793172380697e-01  6.7066033188598484e-01  6.6912148809586069e-01  6.6761911390800821e-01  6.6615053508089983e-01  6.6471285480302122e-01  6.6330322200887459e-01  6.6191924697113169e-01  6.6055962737558882e-01  6.5922507554577392e-01  6.5791967762713000e-01  6.5665287526805538e-01  6.5544235127154371e-01  6.5431824308580122e-01  6.5332933822964823e-01  6.5255229099474710e-01  6.5210556737173242e-01  6.5217102273454508e-01  6.5302823972979429e-01  6.5511102860035575e-01  6.5910405842729725e-01  6.6611584026676562e-01  7.4040198387984102e-01  7.3216032192455371e-01  7.2697081525349683e-01  7.2356357111968872e-01  7.2116970063689434e-01  7.1931621588002259e-01  7.1771183128090132e-01  7.1618015668133572e-01  7.1461891377704423e-01  7.1297413259830744e-01  7.1122336833254729e-01  7.0936458574536021e-01  7.0740876156271237e-01  7.0537510525020575e-01  7.0328858584815501e-01  7.0118179705041972e-01  6.9908007288406382e-01  6.9699457097967121e-01  6.9493146460037314e-01  6.9289488650695175e-01  6.9088802209371891e-01  6.8891353878117001e-01  6.8697374506246212e-01  6.8507063130393830e-01  6.8320585736413264e-01  6.8138071695079405e-01  6.7959609351695915e-01  6.7785241591863610e-01  6.7614961944655105e-01  6.7448711729081035e-01  6.7286378822604198e-01  6.7127798808668082e-01  6.6972759551699301e-01  6.6821010683245419e-01  6.6672280114323312e-01  6.6526300596518950e-01  6.6382850656386749e-01  6.6241816101503292e-01  6.6103281013152926e-01  6.5967661126651311e-01  6.5835898449727115e-01  6.5709745050475832e-01  6.5592178192602157e-01  6.5488012057442391e-01  6.5404809910435657e-01  6.5354267521795484e-01  6.5354358791361689e-01  6.5432757580380241e-01  6.5632478689968443e-01  6.6021539610080127e-01  6.6710264706535571e-01  7.4222263975790348e-01  7.3391934830478411e-01  7.2868513697651949e-01  7.2525815049281528e-01  7.2287212935052314e-01  7.2105334419693368e-01  7.1950755894079910e-01  7.1805404403360762e-01  7.1658541474923598e-01  7.1504229157667754e-01  7.1339683813378152e-01  7.1164183270816384e-01  7.0978331665539096e-01  7.0783564240466434e-01  7.0581824534400883e-01  7.0375397523634198e-01  7.0167047785606640e-01  6.9958940945011960e-01  6.9752148732385122e-01  6.9547326797504894e-01  6.9344940137343880e-01  6.9145351364635810e-01  6.8948857882487768e-01  6.8755707186467163e-01  6.8566102023310183e-01  6.8380200688112602e-01  6.8198115062536246e-01  6.8019907808637192e-01  6.7845589607073409e-01  6.7675117130878371e-01  6.7508392437543085e-01  6.7345264590514153e-01  6.7185534579226636e-01  6.7028965016716580e-01  6.6875296703679421e-01  6.6724275034956493e-01  6.6575690506223550e-01  6.6429439432284576e-01  6.6285613685692446e-01  6.6144632233838041e-01  6.6007433191160270e-01  6.5875754183656432e-01  6.5752543086252757e-01  6.5642564303531958e-01  6.5553304488588915e-01  6.5496348770292512e-01  6.5489519173234867e-01  6.5560290979106384e-01  6.5751433820338812e-01  6.6130686794264770e-01  6.6808098017689488e-01  7.4401938509694276e-01  7.3566699007229153e-01  7.3039743124921352e-01  7.2695516210383926e-01  7.2457622185721460e-01  7.2278660698595687e-01  7.2129005923498113e-01  7.1990267201257241e-01  7.1851319162292204e-01  7.1705803871161400e-01  7.1550511488610224e-01  7.1384305748187959e-01  7.1207399111431391e-01  7.1020859209158349e