<?xml version="1.0"?>
<VTKFile type="UnstructuredGrid"  version="0.1"  >
<UnstructuredGrid>
<Piece  NumberOfPoints="2601" NumberOfCells="5000">
<Points>
<DataArray  type="Float64"  NumberOfComponents="3"  format="ascii">0 0 0  0.2 0 0  0.4 0 0  0.6 0 0  0.8 0 0  1 0 0  1.2 0 0  1.4 0 0  1.6 0 0  1.8 0 0  2 0 0  2.2 0 0  2.4 0 0  2.6 0 0  2.8 0 0  3 0 0  3.2 0 0  3.4 0 0  3.6 0 0  3.8 0 0  4 0 0  4.2 0 0  4.4 0 0  4.6 0 0  4.8 0 0  5 0 0  5.2 0 0  5.4 0 0  5.6 0 0  5.8 0 0  6 0 0  6.2 0 0  6.4 0 0  6.6 0 0  6.8 0 0  7 0 0  7.2 0 0  7.4 0 0  7.6 0 0  7.8 0 0  8 0 0  8.199999999999999 0 0  8.4 0 0  8.6 0 0  8.800000000000001 0 0  9 0 0  9.199999999999999 0 0  9.4 0 0  9.6 0 0  9.800000000000001 0 0  10 0 0  0 0.2 0  0.2 0.2 0  0.4 0.2 0  0.6 0.2 0  0.8 0.2 0  1 0.2 0  1.2 0.2 0  1.4 0.2 0  1.6 0.2 0  1.8 0.2 0  2 0.2 0  2.2 0.2 0  2.4 0.2 0  2.6 0.2 0  2.8 0.2 0  3 0.2 0  3.2 0.2 0  3.4 0.2 0  3.6 0.2 0  3.8 0.2 0  4 0.2 0  4.2 0.2 0  4.4 0.2 0  4.6 0.2 0  4.8 0.2 0  5 0.2 0  5.2 0.2 0  5.4 0.2 0  5.6 0.2 0  5.8 0.2 0  6 0.2 0  6.2 0.2 0  6.4 0.2 0  6.6 0.2 0  6.8 0.2 0  7 0.2 0  7.2 0.2 0  7.4 0.2 0  7.6 0.2 0  7.8 0.2 0  8 0.2 0  8.199999999999999 0.2 0  8.4 0.2 0  8.6 0.2 0  8.800000000000001 0.2 0  9 0.2 0  9.199999999999999 0.2 0  9.4 0.2 0  9.6 0.2 0  9.800000000000001 0.2 0  10 0.2 0  0 0.4 0  0.2 0.4 0  0.4 0.4 0  0.6 0.4 0  0.8 0.4 0  1 0.4 0  1.2 0.4 0  1.4 0.4 0  1.6 0.4 0  1.8 0.4 0  2 0.4 0  2.2 0.4 0  2.4 0.4 0  2.6 0.4 0  2.8 0.4 0  3 0.4 0  3.2 0.4 0  3.4 0.4 0  3.6 0.4 0  3.8 0.4 0  4 0.4 0  4.2 0.4 0  4.4 0.4 0  4.6 0.4 0  4.8 0.4 0  5 0.4 0  5.2 0.4 0  5.4 0.4 0  5.6 0.4 0  5.8 0.4 0  6 0.4 0  6.2 0.4 0  6.4 0.4 0  6.6 0.4 0  6.8 0.4 0  7 0.4 0  7.2 0.4 0  7.4 0.4 0  7.6 0.4 0  7.8 0.4 0  8 0.4 0  8.199999999999999 0.4 0  8.4 0.4 0  8.6 0.4 0  8.800000000000001 0.4 0  9 0.4 0  9.199999999999999 0.4 0  9.4 0.4 0  9.6 0.4 0  9.800000000000001 0.4 0  10 0.4 0  0 0.6 0  0.2 0.6 0  0.4 0.6 0  0.6 0.6 0  0.8 0.6 0  1 0.6 0  1.2 0.6 0  1.4 0.6 0  1.6 0.6 0  1.8 0.6 0  2 0.6 0  2.2 0.6 0  2.4 0.6 0  2.6 0.6 0  2.8 0.6 0  3 0.6 0  3.2 0.6 0  3.4 0.6 0  3.6 0.6 0  3.8 0.6 0  4 0.6 0  4.2 0.6 0  4.4 0.6 0  4.6 0.6 0  4.8 0.6 0  5 0.6 0  5.2 0.6 0  5.4 0.6 0  5.6 0.6 0  5.8 0.6 0  6 0.6 0  6.2 0.6 0  6.4 0.6 0  6.6 0.6 0  6.8 0.6 0  7 0.6 0  7.2 0.6 0  7.4 0.6 0  7.6 0.6 0  7.8 0.6 0  8 0.6 0  8.199999999999999 0.6 0  8.4 0.6 0  8.6 0.6 0  8.800000000000001 0.6 0  9 0.6 0  9.199999999999999 0.6 0  9.4 0.6 0  9.6 0.6 0  9.800000000000001 0.6 0  10 0.6 0  0 0.8 0  0.2 0.8 0  0.4 0.8 0  0.6 0.8 0  0.8 0.8 0  1 0.8 0  1.2 0.8 0  1.4 0.8 0  1.6 0.8 0  1.8 0.8 0  2 0.8 0  2.2 0.8 0  2.4 0.8 0  2.6 0.8 0  2.8 0.8 0  3 0.8 0  3.2 0.8 0  3.4 0.8 0  3.6 0.8 0  3.8 0.8 0  4 0.8 0  4.2 0.8 0  4.4 0.8 0  4.6 0.8 0  4.8 0.8 0  5 0.8 0  5.2 0.8 0  5.4 0.8 0  5.6 0.8 0  5.8 0.8 0  6 0.8 0  6.2 0.8 0  6.4 0.8 0  6.6 0.8 0  6.8 0.8 0  7 0.8 0  7.2 0.8 0  7.4 0.8 0  7.6 0.8 0  7.8 0.8 0  8 0.8 0  8.199999999999999 0.8 0  8.4 0.8 0  8.6 0.8 0  8.800000000000001 0.8 0  9 0.8 0  9.199999999999999 0.8 0  9.4 0.8 0  9.6 0.8 0  9.800000000000001 0.8 0  10 0.8 0  0 1 0  0.2 1 0  0.4 1 0  0.6 1 0  0.8 1 0  1 1 0  1.2 1 0  1.4 1 0  1.6 1 0  1.8 1 0  2 1 0  2.2 1 0  2.4 1 0  2.6 1 0  2.8 1 0  3 1 0  3.2 1 0  3.4 1 0  3.6 1 0  3.8 1 0  4 1 0  4.2 1 0  4.4 1 0  4.6 1 0  4.8 1 0  5 1 0  5.2 1 0  5.4 1 0  5.6 1 0  5.8 1 0  6 1 0  6.2 1 0  6.4 1 0  6.6 1 0  6.8 1 0  7 1 0  7.2 1 0  7.4 1 0  7.6 1 0  7.8 1 0  8 1 0  8.199999999999999 1 0  8.4 1 0  8.6 1 0  8.800000000000001 1 0  9 1 0  9.199999999999999 1 0  9.4 1 0  9.6 1 0  9.800000000000001 1 0  10 1 0  0 1.2 0  0.2 1.2 0  0.4 1.2 0  0.6 1.2 0  0.8 1.2 0  1 1.2 0  1.2 1.2 0  1.4 1.2 0  1.6 1.2 0  1.8 1.2 0  2 1.2 0  2.2 1.2 0  2.4 1.2 0  2.6 1.2 0  2.8 1.2 0  3 1.2 0  3.2 1.2 0  3.4 1.2 0  3.6 1.2 0  3.8 1.2 0  4 1.2 0  4.2 1.2 0  4.4 1.2 0  4.6 1.2 0  4.8 1.2 0  5 1.2 0  5.2 1.2 0  5.4 1.2 0  5.6 1.2 0  5.8 1.2 0  6 1.2 0  6.2 1.2 0  6.4 1.2 0  6.6 1.2 0  6.8 1.2 0  7 1.2 0  7.2 1.2 0  7.4 1.2 0  7.6 1.2 0  7.8 1.2 0  8 1.2 0  8.199999999999999 1.2 0  8.4 1.2 0  8.6 1.2 0  8.800000000000001 1.2 0  9 1.2 0  9.199999999999999 1.2 0  9.4 1.2 0  9.6 1.2 0  9.800000000000001 1.2 0  10 1.2 0  0 1.4 0  0.2 1.4 0  0.4 1.4 0  0.6 1.4 0  0.8 1.4 0  1 1.4 0  1.2 1.4 0  1.4 1.4 0  1.6 1.4 0  1.8 1.4 0  2 1.4 0  2.2 1.4 0  2.4 1.4 0  2.6 1.4 0  2.8 1.4 0  3 1.4 0  3.2 1.4 0  3.4 1.4 0  3.6 1.4 0  3.8 1.4 0  4 1.4 0  4.2 1.4 0  4.4 1.4 0  4.6 1.4 0  4.8 1.4 0  5 1.4 0  5.2 1.4 0  5.4 1.4 0  5.6 1.4 0  5.8 1.4 0  6 1.4 0  6.2 1.4 0  6.4 1.4 0  6.6 1.4 0  6.8 1.4 0  7 1.4 0  7.2 1.4 0  7.4 1.4 0  7.6 1.4 0  7.8 1.4 0  8 1.4 0  8.199999999999999 1.4 0  8.4 1.4 0  8.6 1.4 0  8.800000000000001 1.4 0  9 1.4 0  9.199999999999999 1.4 0  9.4 1.4 0  9.6 1.4 0  9.800000000000001 1.4 0  10 1.4 0  0 1.6 0  0.2 1.6 0  0.4 1.6 0  0.6 1.6 0  0.8 1.6 0  1 1.6 0  1.2 1.6 0  1.4 1.6 0  1.6 1.6 0  1.8 1.6 0  2 1.6 0  2.2 1.6 0  2.4 1.6 0  2.6 1.6 0  2.8 1.6 0  3 1.6 0  3.2 1.6 0  3.4 1.6 0  3.6 1.6 0  3.8 1.6 0  4 1.6 0  4.2 1.6 0  4.4 1.6 0  4.6 1.6 0  4.8 1.6 0  5 1.6 0  5.2 1.6 0  5.4 1.6 0  5.6 1.6 0  5.8 1.6 0  6 1.6 0  6.2 1.6 0  6.4 1.6 0  6.6 1.6 0  6.8 1.6 0  7 1.6 0  7.2 1.6 0  7.4 1.6 0  7.6 1.6 0  7.8 1.6 0  8 1.6 0  8.199999999999999 1.6 0  8.4 1.6 0  8.6 1.6 0  8.800000000000001 1.6 0  9 1.6 0  9.199999999999999 1.6 0  9.4 1.6 0  9.6 1.6 0  9.800000000000001 1.6 0  10 1.6 0  0 1.8 0  0.2 1.8 0  0.4 1.8 0  0.6 1.8 0  0.8 1.8 0  1 1.8 0  1.2 1.8 0  1.4 1.8 0  1.6 1.8 0  1.8 1.8 0  2 1.8 0  2.2 1.8 0  2.4 1.8 0  2.6 1.8 0  2.8 1.8 0  3 1.8 0  3.2 1.8 0  3.4 1.8 0  3.6 1.8 0  3.8 1.8 0  4 1.8 0  4.2 1.8 0  4.4 1.8 0  4.6 1.8 0  4.8 1.8 0  5 1.8 0  5.2 1.8 0  5.4 1.8 0  5.6 1.8 0  5.8 1.8 0  6 1.8 0  6.2 1.8 0  6.4 1.8 0  6.6 1.8 0  6.8 1.8 0  7 1.8 0  7.2 1.8 0  7.4 1.8 0  7.6 1.8 0  7.8 1.8 0  8 1.8 0  8.199999999999999 1.8 0  8.4 1.8 0  8.6 1.8 0  8.800000000000001 1.8 0  9 1.8 0  9.199999999999999 1.8 0  9.4 1.8 0  9.6 1.8 0  9.800000000000001 1.8 0  10 1.8 0  0 2 0  0.2 2 0  0.4 2 0  0.6 2 0  0.8 2 0  1 2 0  1.2 2 0  1.4 2 0  1.6 2 0  1.8 2 0  2 2 0  2.2 2 0  2.4 2 0  2.6 2 0  2.8 2 0  3 2 0  3.2 2 0  3.4 2 0  3.6 2 0  3.8 2 0  4 2 0  4.2 2 0  4.4 2 0  4.6 2 0  4.8 2 0  5 2 0  5.2 2 0  5.4 2 0  5.6 2 0  5.8 2 0  6 2 0  6.2 2 0  6.4 2 0  6.6 2 0  6.8 2 0  7 2 0  7.2 2 0  7.4 2 0  7.6 2 0  7.8 2 0  8 2 0  8.199999999999999 2 0  8.4 2 0  8.6 2 0  8.800000000000001 2 0  9 2 0  9.199999999999999 2 0  9.4 2 0  9.6 2 0  9.800000000000001 2 0  10 2 0  0 2.2 0  0.2 2.2 0  0.4 2.2 0  0.6 2.2 0  0.8 2.2 0  1 2.2 0  1.2 2.2 0  1.4 2.2 0  1.6 2.2 0  1.8 2.2 0  2 2.2 0  2.2 2.2 0  2.4 2.2 0  2.6 2.2 0  2.8 2.2 0  3 2.2 0  3.2 2.2 0  3.4 2.2 0  3.6 2.2 0  3.8 2.2 0  4 2.2 0  4.2 2.2 0  4.4 2.2 0  4.6 2.2 0  4.8 2.2 0  5 2.2 0  5.2 2.2 0  5.4 2.2 0  5.6 2.2 0  5.8 2.2 0  6 2.2 0  6.2 2.2 0  6.4 2.2 0  6.6 2.2 0  6.8 2.2 0  7 2.2 0  7.2 2.2 0  7.4 2.2 0  7.6 2.2 0  7.8 2.2 0  8 2.2 0  8.199999999999999 2.2 0  8.4 2.2 0  8.6 2.2 0  8.800000000000001 2.2 0  9 2.2 0  9.199999999999999 2.2 0  9.4 2.2 0  9.6 2.2 0  9.800000000000001 2.2 0  10 2.2 0  0 2.4 0  0.2 2.4 0  0.4 2.4 0  0.6 2.4 0  0.8 2.4 0  1 2.4 0  1.2 2.4 0  1.4 2.4 0  1.6 2.4 0  1.8 2.4 0  2 2.4 0  2.2 2.4 0  2.4 2.4 0  2.6 2.4 0  2.8 2.4 0  3 2.4 0  3.2 2.4 0  3.4 2.4 0  3.6 2.4 0  3.8 2.4 0  4 2.4 0  4.2 2.4 0  4.4 2.4 0  4.6 2.4 0  4.8 2.4 0  5 2.4 0  5.2 2.4 0  5.4 2.4 0  5.6 2.4 0  5.8 2.4 0  6 2.4 0  6.2 2.4 0  6.4 2.4 0  6.6 2.4 0  6.8 2.4 0  7 2.4 0  7.2 2.4 0  7.4 2.4 0  7.6 2.4 0  7.8 2.4 0  8 2.4 0  8.199999999999999 2.4 0  8.4 2.4 0  8.6 2.4 0  8.800000000000001 2.4 0  9 2.4 0  9.199999999999999 2.4 0  9.4 2.4 0  9.6 2.4 0  9.800000000000001 2.4 0  10 2.4 0  0 2.6 0  0.2 2.6 0  0.4 2.6 0  0.6 2.6 0  0.8 2.6 0  1 2.6 0  1.2 2.6 0  1.4 2.6 0  1.6 2.6 0  1.8 2.6 0  2 2.6 0  2.2 2.6 0  2.4 2.6 0  2.6 2.6 0  2.8 2.6 0  3 2.6 0  3.2 2.6 0  3.4 2.6 0  3.6 2.6 0  3.8 2.6 0  4 2.6 0  4.2 2.6 0  4.4 2.6 0  4.6 2.6 0  4.8 2.6 0  5 2.6 0  5.2 2.6 0  5.4 2.6 0  5.6 2.6 0  5.8 2.6 0  6 2.6 0  6.2 2.6 0  6.4 2.6 0  6.6 2.6 0  6.8 2.6 0  7 2.6 0  7.2 2.6 0  7.4 2.6 0  7.6 2.6 0  7.8 2.6 0  8 2.6 0  8.199999999999999 2.6 0  8.4 2.6 0  8.6 2.6 0  8.800000000000001 2.6 0  9 2.6 0  9.199999999999999 2.6 0  9.4 2.6 0  9.6 2.6 0  9.800000000000001 2.6 0  10 2.6 0  0 2.8 0  0.2 2.8 0  0.4 2.8 0  0.6 2.8 0  0.8 2.8 0  1 2.8 0  1.2 2.8 0  1.4 2.8 0  1.6 2.8 0  1.8 2.8 0  2 2.8 0  2.2 2.8 0  2.4 2.8 0  2.6 2.8 0  2.8 2.8 0  3 2.8 0  3.2 2.8 0  3.4 2.8 0  3.6 2.8 0  3.8 2.8 0  4 2.8 0  4.2 2.8 0  4.4 2.8 0  4.6 2.8 0  4.8 2.8 0  5 2.8 0  5.2 2.8 0  5.4 2.8 0  5.6 2.8 0  5.8 2.8 0  6 2.8 0  6.2 2.8 0  6.4 2.8 0  6.6 2.8 0  6.8 2.8 0  7 2.8 0  7.2 2.8 0  7.4 2.8 0  7.6 2.8 0  7.8 2.8 0  8 2.8 0  8.199999999999999 2.8 0  8.4 2.8 0  8.6 2.8 0  8.800000000000001 2.8 0  9 2.8 0  9.199999999999999 2.8 0  9.4 2.8 0  9.6 2.8 0  9.800000000000001 2.8 0  10 2.8 0  0 3 0  0.2 3 0  0.4 3 0  0.6 3 0  0.8 3 0  1 3 0  1.2 3 0  1.4 3 0  1.6 3 0  1.8 3 0  2 3 0  2.2 3 0  2.4 3 0  2.6 3 0  2.8 3 0  3 3 0  3.2 3 0  3.4 3 0  3.6 3 0  3.8 3 0  4 3 0  4.2 3 0  4.4 3 0  4.6 3 0  4.8 3 0  5 3 0  5.2 3 0  5.4 3 0  5.6 3 0  5.8 3 0  6 3 0  6.2 3 0  6.4 3 0  6.6 3 0  6.8 3 0  7 3 0  7.2 3 0  7.4 3 0  7.6 3 0  7.8 3 0  8 3 0  8.199999999999999 3 0  8.4 3 0  8.6 3 0  8.800000000000001 3 0  9 3 0  9.199999999999999 3 0  9.4 3 0  9.6 3 0  9.800000000000001 3 0  10 3 0  0 3.2 0  0.2 3.2 0  0.4 3.2 0  0.6 3.2 0  0.8 3.2 0  1 3.2 0  1.2 3.2 0  1.4 3.2 0  1.6 3.2 0  1.8 3.2 0  2 3.2 0  2.2 3.2 0  2.4 3.2 0  2.6 3.2 0  2.8 3.2 0  3 3.2 0  3.2 3.2 0  3.4 3.2 0  3.6 3.2 0  3.8 3.2 0  4 3.2 0  4.2 3.2 0  4.4 3.2 0  4.6 3.2 0  4.8 3.2 0  5 3.2 0  5.2 3.2 0  5.4 3.2 0  5.6 3.2 0  5.8 3.2 0  6 3.2 0  6.2 3.2 0  6.4 3.2 0  6.6 3.2 0  6.8 3.2 0  7 3.2 0  7.2 3.2 0  7.4 3.2 0  7.6 3.2 0  7.8 3.2 0  8 3.2 0  8.199999999999999 3.2 0  8.4 3.2 0  8.6 3.2 0  8.800000000000001 3.2 0  9 3.2 0  9.199999999999999 3.2 0  9.4 3.2 0  9.6 3.2 0  9.800000000000001 3.2 0  10 3.2 0  0 3.4 0  0.2 3.4 0  0.4 3.4 0  0.6 3.4 0  0.8 3.4 0  1 3
[...]
<PointData  Scalars="f_12000093"> 
<DataArray  type="Float64"  Name="f_12000093"  format="ascii">1.0439658136618557e+00  1.0377420790500320e+00  1.0307736125507241e+00  1.0243851883571762e+00  1.0188631556305292e+00  1.0142158936962986e+00  1.0103634292531858e+00  1.0071994987021395e+00  1.0046163751087085e+00  1.0025151199435316e+00  1.0008092222369118e+00  9.9942512480971435e-01  9.9830133776984165e-01  9.9738699360892391e-01  9.9664026917481285e-01  9.9602687643383947e-01  9.9551870746913729e-01  9.9509265933363167e-01  9.9472963482897581e-01  9.9441370186986644e-01  9.9413138915642241e-01  9.9387109524699158e-01  9.9362258953936355e-01  9.9337658592121614e-01  9.9312437231810302e-01  9.9285748175375488e-01  9.9256739273472339e-01  9.9224524878024978e-01  9.9188158881167521e-01  9.9146608202243958e-01  9.9098726295543971e-01  9.9043226507494286e-01  9.8978655448592234e-01  9.8903367011098453e-01  9.8815498326354934e-01  9.8712949911620373e-01  9.8593373642644355e-01  9.8454174203334988e-01  9.8292532601358140e-01  9.8105464645780149e-01  9.7889933672594498e-01  9.7643046465196737e-01  9.7362376412209128e-01  9.7046482316286886e-01  9.6695734032501468e-01  9.6313634010424221e-01  9.5908991852261449e-01  9.5499755914104967e-01  9.5121083352118840e-01  9.4844203860557108e-01  9.4886239249673654e-01  1.0399844292729301e+00  1.0333950398254170e+00  1.0267884287308964e+00  1.0206292637442580e+00  1.0152258409470867e+00  1.0106426727482882e+00  1.0068282416154819e+00  1.0036887504807077e+00  1.0011221512590416e+00  9.9903237757695373e-01  9.9733456152502253e-01  9.9595618744129755e-01  9.9483647215755200e-01  9.9392504720271391e-01  9.9318044985901743e-01  9.9256865621509360e-01  9.9206175436994470e-01  9.9163678914401288e-01  9.9127477731233771e-01  9.9095987773663841e-01  9.9067869523124252e-01  9.9041969603171609e-01  9.9017271394607631e-01  9.8992852839073131e-01  9.8967849789774498e-01  9.8941423501938464e-01  9.8912731073632976e-01  9.8880897849867466e-01  9.8844990997074589e-01  9.8803993655133115e-01  9.8756779300392983e-01  9.8702086234428177e-01  9.8638492489777618e-01  9.8564391973089360e-01  9.8477973430512000e-01  9.8377204940949448e-01  9.8259828300033603e-01  9.8123370124858589e-01  9.7965180212541236e-01  9.7782513308941943e-01  9.7572679132061790e-01  9.7333299255527106e-01  9.7062732006685704e-01  9.6760765196386034e-01  9.6429746871814603e-01  9.6076459714154316e-01  9.5715334682179187e-01  9.5374232731418496e-01  9.5105372965477619e-01  9.5008135616929723e-01  9.5265370626471013e-01  1.0352249541239880e+00  1.0277401079847064e+00  1.0217829838147301e+00  1.0165519360417354e+00  1.0119568512070249e+00  1.0079968471896454e+00  1.0046449467108627e+00  1.0018454503130569e+00  9.9952900311007808e-01  9.9762417176433937e-01  9.9606393168710561e-01  9.9478856285381567e-01  9.9374647030174323e-01  9.9289392130745591e-01  9.9219428074642735e-01  9.9161706435990660e-01  9.9113697629251041e-01  9.9073301069248421e-01  9.9038764964898740e-01  9.9008616449934572e-01  9.8981601482231030e-01  9.8956633365123758e-01  9.8932748541449778e-01  9.8909068304588676e-01  9.8884765160946742e-01  9.8859032711860750e-01  9.8831058073925415e-01  9.8799996016218672e-01  9.8764944163149537e-01  9.8724918804057293e-01  9.8678831085647689e-01  9.8625463672276648e-01  9.8563448388416774e-01  9.8491245975769504e-01  9.8407130005713650e-01  9.8309178337854619e-01  9.8195277537705894e-01  9.8063148716818571e-01  9.7910407897777230e-01  9.7734681140390300e-01  9.7533805800702511e-01  9.7306167015636347e-01  9.7051247411531261e-01  9.6770516546330820e-01  9.6468870673034490e-01  9.6156983275619146e-01  9.5855203028371405e-01  9.5600108977018206e-01  9.5455823041900756e-01  9.5532412309744730e-01  9.6017530509868343e-01  1.0305132667382579e+00  1.0224036275233095e+00  1.0168069158833513e+00  1.0124000128757731e+00  1.0086895904712645e+00  1.0055144627924779e+00  1.0028047933129995e+00  1.0005114053144266e+00  9.9858676994714424e-01  9.9698291628788605e-01  9.9565330002660657e-01  9.9455471630598735e-01  9.9364841874834464e-01  9.9290050411315645e-01  9.9228180245539943e-01  9.9176748703025608e-01  9.9133655338776583e-01  9.9097126023192350e-01  9.9065658413740765e-01  9.9037971402810265e-01  9.9012959537402845e-01  9.8989652487221658e-01  9.8967179143409201e-01  9.8944735694209662e-01  9.8921556941042477e-01  9.8896890125481041e-01  9.8869970598869272e-01  9.8839998765175974e-01  9.8806117861278309e-01  9.8767392315739488e-01  9.8722786667234141e-01  9.8671145360521173e-01  9.8611174222756992e-01  9.8541425133242444e-01  9.8460286450613876e-01  9.8365983325459672e-01  9.8256594363289629e-01  9.8130094608509499e-01  9.7984440105275894e-01  9.7817717312810604e-01  9.7628392938014708e-01  9.7415718780929672e-01  9.7180376093351573e-01  9.6925491659651253e-01  9.6658235184923491e-01  9.6392334320713025e-01  9.6152051614215484e-01  9.5978507643494548e-01  9.5939725829212796e-01  9.6146581099121853e-01  9.6777748241198758e-01  1.0262883588780201e+00  1.0177970676394346e+00  1.0123894980681227e+00  1.0085565897769215e+00  1.0055773046997634e+00  1.0031246492168666e+00  1.0010583894086891e+00  9.9930634560666642e-01  9.9782279585795264e-01  9.9657175629509365e-01  9.9552139694957120e-01  9.9464259971635371e-01  9.9390883543824282e-01  9.9329628723815011e-01  9.9278389178225290e-01  9.9235324042121853e-01  9.9198836863232187e-01  9.9167547786947896e-01  9.9140262707230364e-01  9.9115941945443775e-01  9.9093669982421884e-01  9.9072627000460323e-01  9.9052062476364100e-01  9.9031270747860811e-01  9.9009568298076489e-01  9.8986272423754051e-01  9.8960680944487223e-01  9.8932052657717939e-01  9.8899588344616995e-01  9.8862412293405599e-01  9.8819554549343958e-01  9.8769934459227282e-01  9.8712346606741486e-01  9.8645451014363350e-01  9.8567770637232155e-01  9.8477700870905893e-01  9.8373538298255248e-01  9.8253539596770867e-01  9.8116026992467043e-01  9.7959564750104455e-01  9.7783243261850561e-01  9.7587125405113084e-01  9.7372937261365911e-01  9.7145127302811474e-01  9.6912483518506598e-01  9.6690601006131516e-01  9.6505659886450568e-01  9.6400242081870235e-01  9.6442412101261799e-01  9.6740067575535271e-01  9.7464938215821650e-01  1.0226920532248740e+00  1.0139708971872297e+00  1.0086693280545227e+00  1.0052179046772625e+00  1.0027756925971396e+00  1.0009103094833833e+00  9.9940359260100575e-01  9.9815035594944046e-01  9.9709308134789976e-01  9.9619669650825426e-01  9.9543635850461254e-01  9.9479212260336347e-01  9.9424675836682430e-01  9.9378492354295556e-01  9.9339286030447616e-01  9.9305825797723113e-01  9.9277014364627925e-01  9.9251875676344903e-01  9.9229540123912352e-01  9.9209228083731538e-01  9.9190232578540061e-01  9.9171901699819698e-01  9.9153621198478381e-01  9.9134797441815015e-01  9.9114840782787661e-01  9.9093149296813254e-01  9.9069092808273940e-01  9.9041997151443562e-01  9.9011128691942563e-01  9.8975679286369689e-01  9.8934752101150336e-01  9.8887349082273557e-01  9.8832361419355297e-01  9.8768565159881405e-01  9.8694625318100304e-01  9.8609113554753502e-01  9.8510547019278594e-01  9.8397459593024517e-01  9.8268522056059293e-01  9.8122735364962432e-01  9.7959732387661558e-01  9.7780239801865065e-01  9.7586776138785658e-01  9.7384698622699228e-01  9.7183768316585672e-01  9.7000494295772333e-01  9.6861670888939599e-01  9.6809793502204178e-01  9.6911559722607543e-01  9.7271702277016003e-01  9.8056895221014417e-01  1.0197198839428192e+00  1.0108585483901213e+00  1.0056216372472424e+00  1.0024229428437530e+00  1.0003622626879984e+00  9.9894037381173362e-01  9.9788705668224509e-01  9.9705740659681763e-01  9.9637781781744350e-01  9.9580733486081441e-01  9.9532195920298649e-01  9.9490612905251530e-01  9.9454848222180592e-01  9.9423981980615816e-01  9.9397216973337732e-01  9.9373836619391598e-01  9.9353185612873662e-01  9.9334659449565810e-01  9.9317696629648189e-01  9.9301771001249173e-01  9.9286383390709909e-01  9.9271052369284418e-01  9.9255304253303644e-01  9.9238662484834628e-01  9.9220636519516403e-01  9.9200710318530394e-01  9.9178330532497649e-01  9.9152894493648169e-01  9.9123738213117274e-01  9.9090124729928075e-01  9.9051233401608996e-01  9.9006151099437734e-01  9.8953866826283776e-01  9.8893272087136519e-01  9.8823170518792780e-01  9.8742301977727309e-01  9.8649388709080921e-01  9.8543214681134728e-01  9.8422754108658561e-01  9.8287372249644278e-01  9.8137131714929371e-01  9.7973252303882730e-01  9.7798794288510860e-01  9.7619668491065814e-01  9.7446129527313885e-01  9.7294996711865878e-01  9.7193002343787871e-01  9.7181953683729072e-01  9.7326965557256517e-01  9.7730163561309935e-01  9.8554878895864739e-01  1.0173066825405654e+00  1.0083581325678774e+00  1.0031633782057108e+00  1.0001341903241419e+00  9.9834152665500442e-01  9.9724656748874907e-01  9.9654204979187266e-01  9.9605614574031576e-01  9.9569384027832741e-01  9.9540621534759821e-01  9.9516647588556750e-01  9.9495993632762303e-01  9.9477816678744169e-01  9.9461584687019977e-01  9.9446912407877586e-01  9.9433479295558924e-01  9.9420990022874756e-01  9.9409156178943869e-01  9.9397687740945484e-01  9.9386288469332473e-01  9.9374652350539816e-01  9.9362459766786848e-01  9.9349372856368445e-01  9.9335029905749284e-01  9.9319038788648273e-01  9.9300969548814955e-01  9.9280346275214226e-01  9.9256638478813330e-01  9.9229252276059254e-01  9.9197521840030556e-01  9.9160701824266062e-01  9.9117961833118806e-01  9.9068384556513955e-01  9.9010969976448993e-01  9.8944649185690547e-01  9.8868312973378780e-01  9.8780862620985654e-01  9.8681293589652841e-01  9.8568827362848943e-01  9.8443113226069257e-01  9.8304531130037887e-01  9.8154640477721089e-01  9.7996840241925054e-01  9.7837337848941164e-01  9.7686576451673190e-01  9.7561359518765289e-01  9.7488072691117700e-01  9.7507705530287025e-01  9.7683975436293236e-01  9.8117057844211264e-01  9.8968063963469288e-01  1.0153687817948289e+00  1.0063647869458274e+00  1.0011987672401672e+00  9.9828507458837890e-01  9.9668074755737524e-01  9.9582395067625129e-01  9.9538295393116705e-01  9.9516513145508090e-01  9.9506108936924120e-01  9.9500991673296935e-01  9.9498091138036227e-01  9.9495819055020362e-01  9.9493418285531154e-01  9.9490562622429468e-01  9.9487131103819915e-01  9.9483084633000474e-01  9.9478401687788065e-01  9.9473046590518654e-01  9.9466955025905712e-01  9.9460028083599161e-01  9.9452130007490958e-01  9.9443087073302161e-01  9.9432686282248495e-01  9.9420673260084769e-01  9.9406749135231398e-01  9.9390566384173507e-01  9.9371723765939868e-01  9.9349760576168478e-01  9.9324150573931469e-01  9.9294296102945256e-01  9.9259523175042530e-01  9.9219078645534875e-01  9.9172131136263331e-01  9.9117778118819133e-01  9.9055062648697934e-01  9.8983004767794192e-01  9.8900654746108896e-01  9.8807178369202497e-01  9.8701988770592597e-01  9.8584945427777737e-01  9.8456649792403328e-01  9.8318880120987162e-01  9.8175228064991660e-01  9.8032031321069868e-01  9.7899749366217437e-01  9.7795020929655552e-01  9.7743808489067596e-01  9.7786348715830129e-01  9.7985244317658804e-01  9.8439260391893280e-01  9.9308026673823158e-01  1.0138232778978775e+00  1.0047832586364089e+00  9.9963734499912227e-01  9.9680353908780350e-01  9.9533225342132348e-01  9.9464833547336917e-01  9.9440427089527961e-01  9.9439263087878516e-01  9.9449216842585797e-01  9.9463414541878847e-01  9.9478095706934022e-01  9.9491488360428049e-01  9.9502797048022829e-01  9.9511774504648798e-01  9.9518449076471915e-01  9.9522966467144358e-01  9.9525501049774123e-01  9.9526208892220480e-01  9.9525204613752505e-01  9.9522551295384165e-01  9.9518257024706636e-01  9.9512274363320652e-01  9.9504500655815331e-01  9.9494778072963608e-01  9.9482892858003868e-01  9.9468573590075504e-01  9.9451488498605423e-01  9.9431242025769317e-01  9.9407370989293709e-01  9.9379340882894940e-01  9.9346543102035179e-01  9.9308294237452710e-01  9.9263839086174177e-01  9.9212359752849744e-01  9.9152994239649506e-01  9.9084869370796869e-01  9.9007154938404585e-01  9.8919148836355952e-01  9.8820407036858293e-01  9.8710938130613579e-01  9.8591490719877617e-01  9.8463974787825059e-01  9.8332078032979864e-01  9.8202170120461940e-01  9.8084641451574128e-01  9.7995916861452093e-01  9.7961555371794018e-01  9.8021167532997400e-01  9.8236507043166732e-01  9.8705333416676166e-01  9.9586277460946271e-01  1.0125958959079999e+00  1.0035319589165308e+00  9.9840031992364919e-01  9.9562250073899949e-01  9.9424587489289329e-01  9.9368755091182748e-01  9.9358993518608230e-01  9.9373534148353748e-01  9.9399360726100250e-01  9.9428916572606407e-01  9.9458011732465823e-01  9.9484469548611620e-01  9.9507417027871536e-01  9.9526608327687871e-01  9.9542141022890762e-01  9.9554271481796819e-01  9.9563306049714506e-01  9.9569539531514040e-01  9.9573222710705889e-01  9.9574546786391283e-01  9.9573637201670051e-01  9.9570552246046440e-01  9.9565283686398531e-01  9.9557757851760675e-01  9.9547836327399220e-01  9.9535315871450203e-01  9.9519927466218550e-01  9.9501334632619509e-01  9.9479131324715264e-01  9.9452839924469660e-01  9.9421910113064216e-01  9.9385719744693168e-01  9.9343579339640886e-01  9.9294742507659117e-01  9.9238425594064283e-01  9.9173841226569626e-01  9.9100252397638922e-01  9.9017056489870847e-01  9.8923912610658815e-01  9.8820931327434813e-01  9.8708954334316368e-01  9.8589964348188253e-01  9.8467685480762679e-01  9.8348466672359069e-01  9.8242595299282287e-01  9.8166283521005271e-01  9.8144743306331761e-01  9.8217090363358839e-01  9.8444446717783340e-01  9.8923858052547853e-01  9.9813274908829785e-01  1.0116233926948053e+00  1.0025432371440950e+00  9.9742181075426151e-01  9.9468366907854544e-01  9.9337491456827720e-01  9.9290812834219699e-01  9.9291928104146954e-01  9.9318368414296532e-01  9.9356466164860269e-01  9.9398128110921635e-01  9.9438768656599752e-01  9.9475976252116782e-01  9.9508637852210424e-01  9.9536483744353488e-01  9.9559630646972275e-01  9.9578393661528952e-01  9.9593162337751084e-01  9.9604327376093027e-01  9.9612239414226522e-01  9.9617187756200332e-01  9.9619390793979923e-01  9.9618992893784786e-01  9.9616064481337308e-01  9.9610603358244432e-01  9.9602536119718432e-01  9.9591719088976627e-01  9.9577938547824385e-01  9.9560910305673800e-01  9.9540278868367849e-01  9.9515616689071862e-01  9.9486424246610261e-01  9.9452132043326003e-01  9.9412106093145958e-01  9.9365659142536134e-01  9.9312070815474607e-01  9.9250621214432022e-01  9.9180644409268681e-01  9.9101610951246988e-01  9.9013252435094457e-01  9.8915746790342785e-01  9.8809991384308338e-01  9.8698003814515067e-01  9.8583510371236993e-01  9.8472814855873680e-01  9.8376095651118067e-01  9.8309375512805064e-01  9.8297583539193045e-01  9.8379455215245759e-01  9.8615648154872115e-01  9.9102701191959197e-01  9.9998097014094089e-01  1.0108534559470872e+00  1.0017620788409058e+00  9.9664798902251517e-01  9.9393823761462841e-01  9.9267851972058008e-01  9.9227874969452312e-01  9.9237077085044356e-01  9.9272513740120327e-01  9.9320050195319187e-01  9.9371184587574901e-01  9.9421008782515363e-01  9.9466882013261460e-01  9.9507564838977447e-01  9.9542644293475202e-01  9.9572239243656746e-01  9.9596690235722252e-01  9.9616435535092862e-01  9.9631929043496936e-01  9.9643592122208791e-01  9.9651787049684970e-01  9.9656803962262475e-01  9.9658855647948352e-01  9.9658076584162725e-01  9.9654523947274787e-01  9.9648179228364431e-01  9.9638949694137324e-01  9.9626669345366481e-01  9.9611099325070518e-01  9.9591927973608185e-01  9.9568770964695075e-01  9.9541172226629970e-01  9.9508606699008917e-01  9.9470486445643880e-01  9.9426172300973248e-01  9.9374994153008689e-01  9.9316284277090516e-01  9.9249429999233207e-01  9.9173954634666128e-01  9.9089639497222382e-01  9.8996705410946662e-01  9.8896080564135025e-01  9.8789794405553366e-01  9.8681557542399945e-01  9.8577620600641414e-01  9.8488060702342717e-01  9.8428741502495398e-01  9.8424368651423844e-01  9.8513390173561033e-01  9.8756124136668910e-01  9.9248748482971960e-01  1.0014842109518236e+00  1.0102435634437685e+00  1.0011442770703085e+00  9.9603547299651951e-01  9.9334620993957135e-01  9.9212218458398349e-01  9.9177173255531248e-01  9.9192403138896879e-01  9.9234640326262247e-01  9.9289417859743101e-01  9.9347929260351475e-01  9.9405012167167361e-01  9.9457832612663699e-01  9.9505019210747558e-01  9.9546093328196295e-01  9.9581088306885313e-01  9.9610358328962878e-01  9.9634367721720773e-01  9.9653610196463638e-01  9.9668555521412816e-01  9.9679618836420547e-01  9.9687144401006333e-01  9.9691398271942211e-01  9.9692566071608724e-01  9.9690753377825203e-01  9.9685987187950165e-01  9.9678217551835679e-01  9.9667318914226710e-01  9.9653091034366104e-01  9.9635259615734795e-01  9.9613477028967234e-01  9.9587323788059068e-01  9.9556311786821450e-01  9.9519890768308483e-01  9.9477460146760144e-01  9.9428389213027291e-01  9.9372050047641713e-01  9.9307869310113261e-01  9.9235407720688673e-01  9.9154479887688796e-01  9.9065332770117298e-01  9.8968909500950786e-01  9.8867238225334975e-01  9.8764005999938642e-01  9.8665411018388560e-01  9.8581442442876643e-01  9.8527834844987539e-01  9.8529120709414464e-01  9.8623532731882591e-01  9.8871141177263910e-01  9.9367865945456502e-01  1.0027063740278730e+00  1.0097595143847635e+00  1.0006545630806523e+00  9.9554958130787308e-01  9.9287522450539689e-01  9.9167737001769152e-01  9.9136341678341777e-01  9.9156080611431274e-01  9.9203465694819404e-01  9.9263794556272300e-01  9.9328036152934407e-01  9.9390832471320389e-01  9.9449192588958235e-01  9.9501630211208758e-01  9.9547591851208173e-01  9.9587079022632308e-01  9.9620395150111052e-01  9.9648022188719265e-01  9.9670477927378354e-01  9.9688264370271007e-01  9.9701834017206659e-01  9.9711571137268196e-01  9.9717782509009822e-01  9.9720693906059621e-01  9.9720449724394733e-01  9.9717114088227476e-01  9.9710672417961665e-01  9.9701032909868537e-01  9.9688027721816386e-01  9.9671413939192011e-01  9.9650874655551736e-01  9.9626020785554548e-01  9.9596394576307468e-01  9.9561476246936320e-01  9.9520695827545946e-01  9.9473453171977799e-01  9.9419150402106271e-01  9.9357242875923957e-01  9.9287317411980014e-01  9.9209210338803266e-01  9.9123183585981456e-01  9.9030185500727730e-01  9.8932236063649592e-01  9.8832996670539808e-01  9.8738618016146917e-01  9.8659015834557418e-01  9.8609822229206390e-01  9.8615437063594202e-01  9.8713932531487403e-01  9.8965197962302254e-01  9.9464967849036823e-01  1.0037001186817571e+00  1.0093739641777939e+00  1.0002649041195077e+00  9.9516270516431615e-01  9.9249928498821793e-01  9.9132076518908163e-01  9.9103398974617141e-01  9.9126525892491135e-01  9.9177818164239773e-01  9.9242406595811083e-01  9.9311095648371073e-01  9.9378378729753580e-01  9.9441140749773682e-01  9.9497799380724250e-01  9.9547733619997958e-01  9.9590903629076555e-01  9.9627599597652328e-01  9.9658273792290630e-01  9.9683461915298832e-01  9.9703687084134229e-01  9.9719427777961678e-01  9.9731097319704609e-01  9.9739033134816035e-01  9.9743492058542371e-01  9.9744649185632950e-01  9.9742598518563785e-01  9.9737354327675942e-01  9.9728852602741502e-01  9.9716952330839737e-01  9.9701436624299067e-01  9.9682013990278628e-01  9.9658320321331306e-01  9.9629922536959603e-01  9.9596325269440245e-01  9.9556982626032953e-01  9.9511317958955214e-01  9.9458755853320313e-01  9.9398772374134259e-01  9.9330972253068417e-01  9.9255205536941660e-01  9.9171741882661713e-01  9.9081529179670813e-01  9.8986576219463651e-01  9.8890519697562096e-01  9.8799469301936405e-01  9.8723280984382977e-01  9.8677506634491752e-01  9.8686445265657130e-01  9.8788049690995339e-01  9.9042076876576379e-01  9.9544127417710393e-01  1.0045085666518112e+00  1.0090651025262407e+00  9.9995303941634994e-01  9.9485289275157684e-01  9.9219757460643832e-01  9.9103345776736440e-01  9.9076705923014330e-01  9.9102392219879798e-01  9.9156661359707554e-01  9.9224525647038098e-01  9.9296669357254141e-01  9.9367474025674052e-01  9.9433727819049811e-01  9.9493770500107603e-01  9.95469