<?xml version="1.0"?>
<VTKFile type="UnstructuredGrid"  version="0.1"  >
<UnstructuredGrid>
<Piece  NumberOfPoints="2601" NumberOfCells="5000">
<Points>
<DataArray  type="Float64"  NumberOfComponents="3"  format="ascii">0 0 0  0.2 0 0  0.4 0 0  0.6 0 0  0.8 0 0  1 0 0  1.2 0 0  1.4 0 0  1.6 0 0  1.8 0 0  2 0 0  2.2 0 0  2.4 0 0  2.6 0 0  2.8 0 0  3 0 0  3.2 0 0  3.4 0 0  3.6 0 0  3.8 0 0  4 0 0  4.2 0 0  4.4 0 0  4.6 0 0  4.8 0 0  5 0 0  5.2 0 0  5.4 0 0  5.6 0 0  5.8 0 0  6 0 0  6.2 0 0  6.4 0 0  6.6 0 0  6.8 0 0  7 0 0  7.2 0 0  7.4 0 0  7.6 0 0  7.8 0 0  8 0 0  8.199999999999999 0 0  8.4 0 0  8.6 0 0  8.800000000000001 0 0  9 0 0  9.199999999999999 0 0  9.4 0 0  9.6 0 0  9.800000000000001 0 0  10 0 0  0 0.2 0  0.2 0.2 0  0.4 0.2 0  0.6 0.2 0  0.8 0.2 0  1 0.2 0  1.2 0.2 0  1.4 0.2 0  1.6 0.2 0  1.8 0.2 0  2 0.2 0  2.2 0.2 0  2.4 0.2 0  2.6 0.2 0  2.8 0.2 0  3 0.2 0  3.2 0.2 0  3.4 0.2 0  3.6 0.2 0  3.8 0.2 0  4 0.2 0  4.2 0.2 0  4.4 0.2 0  4.6 0.2 0  4.8 0.2 0  5 0.2 0  5.2 0.2 0  5.4 0.2 0  5.6 0.2 0  5.8 0.2 0  6 0.2 0  6.2 0.2 0  6.4 0.2 0  6.6 0.2 0  6.8 0.2 0  7 0.2 0  7.2 0.2 0  7.4 0.2 0  7.6 0.2 0  7.8 0.2 0  8 0.2 0  8.199999999999999 0.2 0  8.4 0.2 0  8.6 0.2 0  8.800000000000001 0.2 0  9 0.2 0  9.199999999999999 0.2 0  9.4 0.2 0  9.6 0.2 0  9.800000000000001 0.2 0  10 0.2 0  0 0.4 0  0.2 0.4 0  0.4 0.4 0  0.6 0.4 0  0.8 0.4 0  1 0.4 0  1.2 0.4 0  1.4 0.4 0  1.6 0.4 0  1.8 0.4 0  2 0.4 0  2.2 0.4 0  2.4 0.4 0  2.6 0.4 0  2.8 0.4 0  3 0.4 0  3.2 0.4 0  3.4 0.4 0  3.6 0.4 0  3.8 0.4 0  4 0.4 0  4.2 0.4 0  4.4 0.4 0  4.6 0.4 0  4.8 0.4 0  5 0.4 0  5.2 0.4 0  5.4 0.4 0  5.6 0.4 0  5.8 0.4 0  6 0.4 0  6.2 0.4 0  6.4 0.4 0  6.6 0.4 0  6.8 0.4 0  7 0.4 0  7.2 0.4 0  7.4 0.4 0  7.6 0.4 0  7.8 0.4 0  8 0.4 0  8.199999999999999 0.4 0  8.4 0.4 0  8.6 0.4 0  8.800000000000001 0.4 0  9 0.4 0  9.199999999999999 0.4 0  9.4 0.4 0  9.6 0.4 0  9.800000000000001 0.4 0  10 0.4 0  0 0.6 0  0.2 0.6 0  0.4 0.6 0  0.6 0.6 0  0.8 0.6 0  1 0.6 0  1.2 0.6 0  1.4 0.6 0  1.6 0.6 0  1.8 0.6 0  2 0.6 0  2.2 0.6 0  2.4 0.6 0  2.6 0.6 0  2.8 0.6 0  3 0.6 0  3.2 0.6 0  3.4 0.6 0  3.6 0.6 0  3.8 0.6 0  4 0.6 0  4.2 0.6 0  4.4 0.6 0  4.6 0.6 0  4.8 0.6 0  5 0.6 0  5.2 0.6 0  5.4 0.6 0  5.6 0.6 0  5.8 0.6 0  6 0.6 0  6.2 0.6 0  6.4 0.6 0  6.6 0.6 0  6.8 0.6 0  7 0.6 0  7.2 0.6 0  7.4 0.6 0  7.6 0.6 0  7.8 0.6 0  8 0.6 0  8.199999999999999 0.6 0  8.4 0.6 0  8.6 0.6 0  8.800000000000001 0.6 0  9 0.6 0  9.199999999999999 0.6 0  9.4 0.6 0  9.6 0.6 0  9.800000000000001 0.6 0  10 0.6 0  0 0.8 0  0.2 0.8 0  0.4 0.8 0  0.6 0.8 0  0.8 0.8 0  1 0.8 0  1.2 0.8 0  1.4 0.8 0  1.6 0.8 0  1.8 0.8 0  2 0.8 0  2.2 0.8 0  2.4 0.8 0  2.6 0.8 0  2.8 0.8 0  3 0.8 0  3.2 0.8 0  3.4 0.8 0  3.6 0.8 0  3.8 0.8 0  4 0.8 0  4.2 0.8 0  4.4 0.8 0  4.6 0.8 0  4.8 0.8 0  5 0.8 0  5.2 0.8 0  5.4 0.8 0  5.6 0.8 0  5.8 0.8 0  6 0.8 0  6.2 0.8 0  6.4 0.8 0  6.6 0.8 0  6.8 0.8 0  7 0.8 0  7.2 0.8 0  7.4 0.8 0  7.6 0.8 0  7.8 0.8 0  8 0.8 0  8.199999999999999 0.8 0  8.4 0.8 0  8.6 0.8 0  8.800000000000001 0.8 0  9 0.8 0  9.199999999999999 0.8 0  9.4 0.8 0  9.6 0.8 0  9.800000000000001 0.8 0  10 0.8 0  0 1 0  0.2 1 0  0.4 1 0  0.6 1 0  0.8 1 0  1 1 0  1.2 1 0  1.4 1 0  1.6 1 0  1.8 1 0  2 1 0  2.2 1 0  2.4 1 0  2.6 1 0  2.8 1 0  3 1 0  3.2 1 0  3.4 1 0  3.6 1 0  3.8 1 0  4 1 0  4.2 1 0  4.4 1 0  4.6 1 0  4.8 1 0  5 1 0  5.2 1 0  5.4 1 0  5.6 1 0  5.8 1 0  6 1 0  6.2 1 0  6.4 1 0  6.6 1 0  6.8 1 0  7 1 0  7.2 1 0  7.4 1 0  7.6 1 0  7.8 1 0  8 1 0  8.199999999999999 1 0  8.4 1 0  8.6 1 0  8.800000000000001 1 0  9 1 0  9.199999999999999 1 0  9.4 1 0  9.6 1 0  9.800000000000001 1 0  10 1 0  0 1.2 0  0.2 1.2 0  0.4 1.2 0  0.6 1.2 0  0.8 1.2 0  1 1.2 0  1.2 1.2 0  1.4 1.2 0  1.6 1.2 0  1.8 1.2 0  2 1.2 0  2.2 1.2 0  2.4 1.2 0  2.6 1.2 0  2.8 1.2 0  3 1.2 0  3.2 1.2 0  3.4 1.2 0  3.6 1.2 0  3.8 1.2 0  4 1.2 0  4.2 1.2 0  4.4 1.2 0  4.6 1.2 0  4.8 1.2 0  5 1.2 0  5.2 1.2 0  5.4 1.2 0  5.6 1.2 0  5.8 1.2 0  6 1.2 0  6.2 1.2 0  6.4 1.2 0  6.6 1.2 0  6.8 1.2 0  7 1.2 0  7.2 1.2 0  7.4 1.2 0  7.6 1.2 0  7.8 1.2 0  8 1.2 0  8.199999999999999 1.2 0  8.4 1.2 0  8.6 1.2 0  8.800000000000001 1.2 0  9 1.2 0  9.199999999999999 1.2 0  9.4 1.2 0  9.6 1.2 0  9.800000000000001 1.2 0  10 1.2 0  0 1.4 0  0.2 1.4 0  0.4 1.4 0  0.6 1.4 0  0.8 1.4 0  1 1.4 0  1.2 1.4 0  1.4 1.4 0  1.6 1.4 0  1.8 1.4 0  2 1.4 0  2.2 1.4 0  2.4 1.4 0  2.6 1.4 0  2.8 1.4 0  3 1.4 0  3.2 1.4 0  3.4 1.4 0  3.6 1.4 0  3.8 1.4 0  4 1.4 0  4.2 1.4 0  4.4 1.4 0  4.6 1.4 0  4.8 1.4 0  5 1.4 0  5.2 1.4 0  5.4 1.4 0  5.6 1.4 0  5.8 1.4 0  6 1.4 0  6.2 1.4 0  6.4 1.4 0  6.6 1.4 0  6.8 1.4 0  7 1.4 0  7.2 1.4 0  7.4 1.4 0  7.6 1.4 0  7.8 1.4 0  8 1.4 0  8.199999999999999 1.4 0  8.4 1.4 0  8.6 1.4 0  8.800000000000001 1.4 0  9 1.4 0  9.199999999999999 1.4 0  9.4 1.4 0  9.6 1.4 0  9.800000000000001 1.4 0  10 1.4 0  0 1.6 0  0.2 1.6 0  0.4 1.6 0  0.6 1.6 0  0.8 1.6 0  1 1.6 0  1.2 1.6 0  1.4 1.6 0  1.6 1.6 0  1.8 1.6 0  2 1.6 0  2.2 1.6 0  2.4 1.6 0  2.6 1.6 0  2.8 1.6 0  3 1.6 0  3.2 1.6 0  3.4 1.6 0  3.6 1.6 0  3.8 1.6 0  4 1.6 0  4.2 1.6 0  4.4 1.6 0  4.6 1.6 0  4.8 1.6 0  5 1.6 0  5.2 1.6 0  5.4 1.6 0  5.6 1.6 0  5.8 1.6 0  6 1.6 0  6.2 1.6 0  6.4 1.6 0  6.6 1.6 0  6.8 1.6 0  7 1.6 0  7.2 1.6 0  7.4 1.6 0  7.6 1.6 0  7.8 1.6 0  8 1.6 0  8.199999999999999 1.6 0  8.4 1.6 0  8.6 1.6 0  8.800000000000001 1.6 0  9 1.6 0  9.199999999999999 1.6 0  9.4 1.6 0  9.6 1.6 0  9.800000000000001 1.6 0  10 1.6 0  0 1.8 0  0.2 1.8 0  0.4 1.8 0  0.6 1.8 0  0.8 1.8 0  1 1.8 0  1.2 1.8 0  1.4 1.8 0  1.6 1.8 0  1.8 1.8 0  2 1.8 0  2.2 1.8 0  2.4 1.8 0  2.6 1.8 0  2.8 1.8 0  3 1.8 0  3.2 1.8 0  3.4 1.8 0  3.6 1.8 0  3.8 1.8 0  4 1.8 0  4.2 1.8 0  4.4 1.8 0  4.6 1.8 0  4.8 1.8 0  5 1.8 0  5.2 1.8 0  5.4 1.8 0  5.6 1.8 0  5.8 1.8 0  6 1.8 0  6.2 1.8 0  6.4 1.8 0  6.6 1.8 0  6.8 1.8 0  7 1.8 0  7.2 1.8 0  7.4 1.8 0  7.6 1.8 0  7.8 1.8 0  8 1.8 0  8.199999999999999 1.8 0  8.4 1.8 0  8.6 1.8 0  8.800000000000001 1.8 0  9 1.8 0  9.199999999999999 1.8 0  9.4 1.8 0  9.6 1.8 0  9.800000000000001 1.8 0  10 1.8 0  0 2 0  0.2 2 0  0.4 2 0  0.6 2 0  0.8 2 0  1 2 0  1.2 2 0  1.4 2 0  1.6 2 0  1.8 2 0  2 2 0  2.2 2 0  2.4 2 0  2.6 2 0  2.8 2 0  3 2 0  3.2 2 0  3.4 2 0  3.6 2 0  3.8 2 0  4 2 0  4.2 2 0  4.4 2 0  4.6 2 0  4.8 2 0  5 2 0  5.2 2 0  5.4 2 0  5.6 2 0  5.8 2 0  6 2 0  6.2 2 0  6.4 2 0  6.6 2 0  6.8 2 0  7 2 0  7.2 2 0  7.4 2 0  7.6 2 0  7.8 2 0  8 2 0  8.199999999999999 2 0  8.4 2 0  8.6 2 0  8.800000000000001 2 0  9 2 0  9.199999999999999 2 0  9.4 2 0  9.6 2 0  9.800000000000001 2 0  10 2 0  0 2.2 0  0.2 2.2 0  0.4 2.2 0  0.6 2.2 0  0.8 2.2 0  1 2.2 0  1.2 2.2 0  1.4 2.2 0  1.6 2.2 0  1.8 2.2 0  2 2.2 0  2.2 2.2 0  2.4 2.2 0  2.6 2.2 0  2.8 2.2 0  3 2.2 0  3.2 2.2 0  3.4 2.2 0  3.6 2.2 0  3.8 2.2 0  4 2.2 0  4.2 2.2 0  4.4 2.2 0  4.6 2.2 0  4.8 2.2 0  5 2.2 0  5.2 2.2 0  5.4 2.2 0  5.6 2.2 0  5.8 2.2 0  6 2.2 0  6.2 2.2 0  6.4 2.2 0  6.6 2.2 0  6.8 2.2 0  7 2.2 0  7.2 2.2 0  7.4 2.2 0  7.6 2.2 0  7.8 2.2 0  8 2.2 0  8.199999999999999 2.2 0  8.4 2.2 0  8.6 2.2 0  8.800000000000001 2.2 0  9 2.2 0  9.199999999999999 2.2 0  9.4 2.2 0  9.6 2.2 0  9.800000000000001 2.2 0  10 2.2 0  0 2.4 0  0.2 2.4 0  0.4 2.4 0  0.6 2.4 0  0.8 2.4 0  1 2.4 0  1.2 2.4 0  1.4 2.4 0  1.6 2.4 0  1.8 2.4 0  2 2.4 0  2.2 2.4 0  2.4 2.4 0  2.6 2.4 0  2.8 2.4 0  3 2.4 0  3.2 2.4 0  3.4 2.4 0  3.6 2.4 0  3.8 2.4 0  4 2.4 0  4.2 2.4 0  4.4 2.4 0  4.6 2.4 0  4.8 2.4 0  5 2.4 0  5.2 2.4 0  5.4 2.4 0  5.6 2.4 0  5.8 2.4 0  6 2.4 0  6.2 2.4 0  6.4 2.4 0  6.6 2.4 0  6.8 2.4 0  7 2.4 0  7.2 2.4 0  7.4 2.4 0  7.6 2.4 0  7.8 2.4 0  8 2.4 0  8.199999999999999 2.4 0  8.4 2.4 0  8.6 2.4 0  8.800000000000001 2.4 0  9 2.4 0  9.199999999999999 2.4 0  9.4 2.4 0  9.6 2.4 0  9.800000000000001 2.4 0  10 2.4 0  0 2.6 0  0.2 2.6 0  0.4 2.6 0  0.6 2.6 0  0.8 2.6 0  1 2.6 0  1.2 2.6 0  1.4 2.6 0  1.6 2.6 0  1.8 2.6 0  2 2.6 0  2.2 2.6 0  2.4 2.6 0  2.6 2.6 0  2.8 2.6 0  3 2.6 0  3.2 2.6 0  3.4 2.6 0  3.6 2.6 0  3.8 2.6 0  4 2.6 0  4.2 2.6 0  4.4 2.6 0  4.6 2.6 0  4.8 2.6 0  5 2.6 0  5.2 2.6 0  5.4 2.6 0  5.6 2.6 0  5.8 2.6 0  6 2.6 0  6.2 2.6 0  6.4 2.6 0  6.6 2.6 0  6.8 2.6 0  7 2.6 0  7.2 2.6 0  7.4 2.6 0  7.6 2.6 0  7.8 2.6 0  8 2.6 0  8.199999999999999 2.6 0  8.4 2.6 0  8.6 2.6 0  8.800000000000001 2.6 0  9 2.6 0  9.199999999999999 2.6 0  9.4 2.6 0  9.6 2.6 0  9.800000000000001 2.6 0  10 2.6 0  0 2.8 0  0.2 2.8 0  0.4 2.8 0  0.6 2.8 0  0.8 2.8 0  1 2.8 0  1.2 2.8 0  1.4 2.8 0  1.6 2.8 0  1.8 2.8 0  2 2.8 0  2.2 2.8 0  2.4 2.8 0  2.6 2.8 0  2.8 2.8 0  3 2.8 0  3.2 2.8 0  3.4 2.8 0  3.6 2.8 0  3.8 2.8 0  4 2.8 0  4.2 2.8 0  4.4 2.8 0  4.6 2.8 0  4.8 2.8 0  5 2.8 0  5.2 2.8 0  5.4 2.8 0  5.6 2.8 0  5.8 2.8 0  6 2.8 0  6.2 2.8 0  6.4 2.8 0  6.6 2.8 0  6.8 2.8 0  7 2.8 0  7.2 2.8 0  7.4 2.8 0  7.6 2.8 0  7.8 2.8 0  8 2.8 0  8.199999999999999 2.8 0  8.4 2.8 0  8.6 2.8 0  8.800000000000001 2.8 0  9 2.8 0  9.199999999999999 2.8 0  9.4 2.8 0  9.6 2.8 0  9.800000000000001 2.8 0  10 2.8 0  0 3 0  0.2 3 0  0.4 3 0  0.6 3 0  0.8 3 0  1 3 0  1.2 3 0  1.4 3 0  1.6 3 0  1.8 3 0  2 3 0  2.2 3 0  2.4 3 0  2.6 3 0  2.8 3 0  3 3 0  3.2 3 0  3.4 3 0  3.6 3 0  3.8 3 0  4 3 0  4.2 3 0  4.4 3 0  4.6 3 0  4.8 3 0  5 3 0  5.2 3 0  5.4 3 0  5.6 3 0  5.8 3 0  6 3 0  6.2 3 0  6.4 3 0  6.6 3 0  6.8 3 0  7 3 0  7.2 3 0  7.4 3 0  7.6 3 0  7.8 3 0  8 3 0  8.199999999999999 3 0  8.4 3 0  8.6 3 0  8.800000000000001 3 0  9 3 0  9.199999999999999 3 0  9.4 3 0  9.6 3 0  9.800000000000001 3 0  10 3 0  0 3.2 0  0.2 3.2 0  0.4 3.2 0  0.6 3.2 0  0.8 3.2 0  1 3.2 0  1.2 3.2 0  1.4 3.2 0  1.6 3.2 0  1.8 3.2 0  2 3.2 0  2.2 3.2 0  2.4 3.2 0  2.6 3.2 0  2.8 3.2 0  3 3.2 0  3.2 3.2 0  3.4 3.2 0  3.6 3.2 0  3.8 3.2 0  4 3.2 0  4.2 3.2 0  4.4 3.2 0  4.6 3.2 0  4.8 3.2 0  5 3.2 0  5.2 3.2 0  5.4 3.2 0  5.6 3.2 0  5.8 3.2 0  6 3.2 0  6.2 3.2 0  6.4 3.2 0  6.6 3.2 0  6.8 3.2 0  7 3.2 0  7.2 3.2 0  7.4 3.2 0  7.6 3.2 0  7.8 3.2 0  8 3.2 0  8.199999999999999 3.2 0  8.4 3.2 0  8.6 3.2 0  8.800000000000001 3.2 0  9 3.2 0  9.199999999999999 3.2 0  9.4 3.2 0  9.6 3.2 0  9.800000000000001 3.2 0  10 3.2 0  0 3.4 0  0.2 3.4 0  0.4 3.4 0  0.6 3.4 0  0.8 3.4 0  1 3
[...]
<PointData  Scalars="f_12000073"> 
<DataArray  type="Float64"  Name="f_12000073"  format="ascii">3.8748602554222372e-01  3.7396069194508047e-01  3.6338175669513195e-01  3.5806238278766678e-01  3.5503587890835375e-01  3.5319279511765234e-01  3.5201281452297772e-01  3.5123812122010034e-01  3.5071448479498357e-01  3.5035340816047844e-01  3.5009964249468595e-01  3.4991831426390552e-01  3.4978676975617895e-01  3.4969003712058627e-01  3.4961805274293750e-01  3.4956395393397754e-01  3.4952299803647008e-01  3.4949186775282143e-01  3.4946821770100001e-01  3.4945037485403896e-01  3.4943713856649555e-01  3.4942764604246324e-01  3.4942128148775575e-01  3.4941761501033858e-01  3.4941636237856544e-01  3.4941736010874980e-01  3.4942055270956601e-01  3.4942599070689256e-01  3.4943383962827818e-01  3.4944440170500485e-01  3.4945815390757762e-01  3.4947580838389775e-01  3.4949840478562200e-01  3.4952744910702233e-01  3.4956512084553104e-01  3.4961458320405903e-01  3.4968044381735547e-01  3.4976946069878279e-01  3.4989156291426576e-01  3.5006159009285254e-01  3.5030131803686881e-01  3.5064508213266632e-01  3.5113974351314087e-01  3.5187763858486398e-01  3.5293132682576445e-01  3.5467571091453648e-01  3.5682865800686764e-01  3.6192536611698672e-01  3.6513319426462398e-01  3.8456547310373668e-01  3.8871876938441657e-01  3.7626132294813297e-01  3.4356362065781204e-01  3.1161482056855055e-01  2.9603280844618435e-01  2.8665987922418129e-01  2.8085317976750784e-01  2.7719438998169171e-01  2.7482613390661137e-01  2.7327108700824648e-01  2.7223612175656964e-01  2.7153989635316134e-01  2.7106728660293999e-01  2.7074402922955265e-01  2.7052155030098990e-01  2.7036772526314462e-01  2.7026111307924749e-01  2.7018729993241863e-01  2.7013654583218288e-01  2.7010225282133415e-01  2.7007995901577386e-01  2.7006667420394748e-01  2.7006044048601230e-01  2.7006004364083697e-01  2.7006482770332185e-01  2.7007458265769718e-01  2.7008948685574380e-01  2.7011009404745340e-01  2.7013736127894972e-01  2.7017271945090865e-01  2.7021819391890395e-01  2.7027658899568285e-01  2.7035175854206406e-01  2.7044899622002810e-01  2.7057559520119795e-01  2.7074165046168525e-01  2.7096121184160110e-01  2.7125394554583948e-01  2.7164754618238152e-01  2.7218123293655949e-01  2.7291094347610623e-01  2.7391676145585825e-01  2.7531492216201792e-01  2.7727249985773222e-01  2.8004260705828476e-01  2.8397216358063376e-01  2.8968939596697679e-01  2.9775990594741147e-01  3.1053839289712010e-01  3.2648628050982392e-01  3.6179059421642623e-01  3.8555741867156157e-01  3.6786537350359233e-01  3.1660202048637415e-01  2.5050817691655836e-01  2.2043556161273423e-01  1.9946339866089347e-01  1.8655214143802257e-01  1.7814373424389249e-01  1.7263699441525954e-01  1.6897465548316476e-01  1.6651226605526590e-01  1.6483950785917847e-01  1.6369295217633603e-01  1.6290065321427041e-01  1.6234918328278120e-01  1.6196291080607153e-01  1.6169096386794518e-01  1.6149885887959162e-01  1.6136307220887006e-01  1.6126748086223419e-01  1.6120100967929019e-01  1.6115606640158786e-01  1.6112749797581558e-01  1.6111189671116216e-01  1.6110714590992442e-01  1.6111213441407360e-01  1.6112659629508722e-01  1.6115105078893757e-01  1.6118683194135477e-01  1.6123620969553853e-01  1.6130261625270659e-01  1.6139100525837510e-01  1.6150838868794687e-01  1.6166461965650888e-01  1.6187352217641787e-01  1.6215451554513813e-01  1.6253494968345247e-01  1.6305346418134378e-01  1.6376484021988102e-01  1.6474699284533131e-01  1.6611121847197369e-01  1.6801677376319737e-01  1.7069358329628320e-01  1.7447077908798198e-01  1.7983753208200381e-01  1.8746698318146379e-01  1.9850104534244073e-01  2.1408860771807514e-01  2.3794032984404248e-01  2.6865572020762052e-01  3.2936371443002488e-01  3.6830363054880899e-01  3.6411206887638925e-01  3.0539711325588847e-01  2.2827779169280585e-01  1.8795711214930372e-01  1.6106111890959238e-01  1.4343788880020608e-01  1.3175598416542739e-01  1.2392940763889239e-01  1.1864367611658065e-01  1.1503700165925151e-01  1.1255551498210783e-01  1.1083362736119157e-01  1.0962943689360033e-01  1.0878097052882653e-01  1.0817895714308348e-01  1.0774908051681861e-01  1.0744044026843436e-01  1.0721794984047861e-01  1.0705729430345418e-01  1.0694156143057044e-01  1.0685897930619601e-01  1.0680139311290855e-01  1.0676324217056644e-01  1.0674088158792835e-01  1.0673214801777602e-01  1.0673610644386730e-01  1.0675294149018277e-01  1.0678397699855911e-01  1.0683182485349749e-01  1.0690068086335815e-01  1.0699680435032477e-01  1.0712924156246262e-01  1.0731088424868868e-01  1.0755999800661034e-01  1.0790241584470350e-01  1.0837468016781331e-01  1.0902853892059822e-01  1.0993739165692051e-01  1.1120550742564901e-01  1.1298134980361750e-01  1.1547641170183835e-01  1.1899362274742629e-01  1.2396383362763673e-01  1.3101608216075347e-01  1.4101654270953717e-01  1.5536379961192123e-01  1.7555064939318912e-01  2.0575750106568513e-01  2.4489162357831423e-01  3.1782702751998954e-01  3.6731797448577219e-01  3.6215039941218358e-01  2.9952152874221311e-01  2.1380756071126400e-01  1.6863307503765995e-01  1.3472362943330690e-01  1.1408947078547768e-01  9.9569543511838485e-02  8.9830277364424865e-02  8.3141012873460776e-02  7.8537725163389999e-02  7.5340781516432226e-02  7.3104877491343492e-02  7.1529211518408270e-02  7.0410715449639893e-02  6.9611046253106934e-02  6.9035396043078040e-02  6.8618358606507959e-02  6.8314542835864675e-02  6.8092277292888179e-02  6.7929370455484098e-02  6.7810241998307222e-02  6.7723978185803196e-02  6.7663016791915095e-02  6.7622267954667997e-02  6.7598544808797414e-02  6.7590223985381517e-02  6.7597089059538748e-02  6.7620335225206371e-02  6.7662734822752812e-02  6.7728983992678349e-02  6.7826273553059480e-02  6.7965155247192655e-02  6.8160811391567447e-02  6.8434886460209551e-02  6.8818109353426041e-02  6.9354035037186443e-02  7.0104372221869701e-02  7.1156573378030274e-02  7.2634611714972624e-02  7.4714412832927929e-02  7.7645488328899184e-02  8.1783051137784266e-02  8.7629136162664781e-02  9.5909164992131951e-02  1.0761661471790646e-01  1.2432170399899720e-01  1.4771982513908652e-01  1.8231971293262608e-01  2.2707857838974849e-01  3.0850018896995246e-01  3.6347380952712183e-01  3.6107723611992759e-01  2.9629338984210951e-01  2.0615671234060667e-01  1.5734136036678065e-01  1.2115554351226837e-01  9.6755774841186040e-02  8.0810622717835193e-02  6.9604865019123094e-02  6.1910481644642447e-02  5.6555706913952543e-02  5.2816818879475279e-02  5.0186517661214881e-02  4.8324042095194863e-02  4.6995872773558094e-02  4.6042076955124384e-02  4.5352313369891956e-02  4.4850088069689667e-02  4.4482070998163925e-02  4.4210894717736281e-02  4.4010263955048166e-02  4.3861628398342331e-02  4.3751915416072089e-02  4.3671989505539847e-02  4.3615617135406244e-02  4.3578791750708307e-02  4.3559326219063534e-02  4.3556657704438055e-02  4.3571838802567806e-02  4.3607713140894636e-02  4.3669297034759136e-02  4.3764414376758466e-02  4.3904663037468310e-02  4.4106831545858198e-02  4.4394939742503844e-02  4.4803152793303137e-02  4.5379924645063865e-02  4.6193873157350011e-02  4.7342108222071980e-02  4.8961993018649022e-02  5.1247871446952274e-02  5.4474383323313814e-02  5.9030721248097918e-02  6.5464413267629140e-02  7.4561150688612576e-02  8.7392888086930423e-02  1.0563208516747817e-01  1.3109563210623865e-01  1.6847445557000768e-01  2.1677967818784408e-01  3.0330798518433366e-01  3.6234915017229696e-01  3.6045342828699606e-01  2.9452574932406983e-01  2.0175449110501717e-01  1.5075729906386157e-01  1.1231677329118854e-01  8.6857143289463146e-02  6.8610361747049722e-02  5.6730697129012339e-02  4.8229761410354691e-02  4.2339102926323792e-02  3.8193999764625820e-02  3.5271830168964666e-02  3.3196809492568209e-02  3.1714284390945459e-02  3.0647734108050970e-02  2.9875105709699108e-02  2.9311456706329484e-02  2.8897435100126122e-02  2.8591370034238534e-02  2.8363888015196674e-02  2.8194229080183535e-02  2.8067728508316413e-02  2.7974100391970309e-02  2.7906280997839473e-02  2.7859671676003707e-02  2.7831678409006792e-02  2.7821486371919408e-02  2.7830039518039584e-02  2.7860221843767279e-02  2.7917262368312028e-02  2.8009413368483470e-02  2.8148984535391247e-02  2.8353858503068569e-02  2.8649670833626985e-02  2.9072916496622626e-02  2.9675355488685464e-02  3.0530241003695960e-02  3.1741117954211376e-02  3.3454204109431646e-02  3.5875925250499756e-02  3.9297267171709685e-02  4.4129350097630179e-02  5.0948824225051384e-02  6.0579745653538124e-02  7.4143656142002426e-02  9.3377784038441936e-02  1.2017494084340855e-01  1.5934509382976064e-01  2.0992185207539321e-01  2.9978515192619287e-01  3.6129500418817195e-01  3.6008853522682510e-01  2.9353315052210271e-01  1.9924551817756395e-01  1.4686175133739646e-01  1.0711703264812465e-01  8.0441970019557010e-02  6.1741630856348734e-02  4.8460894861338796e-02  3.9672746167537860e-02  3.3352872264538938e-02  2.8934680880681071e-02  2.5804449206292678e-02  2.3582166829870355e-02  2.1993680248861593e-02  2.0851329971970561e-02  2.0024152607024264e-02  1.9420984978153345e-02  1.8978015337105653e-02  1.8650431933062341e-02  1.8406647065685507e-02  1.8224342539379816e-02  1.8087755426726086e-02  1.7985825013173758e-02  1.7910941845656125e-02  1.7858127265101862e-02  1.7824532256493060e-02  1.7809188522302781e-02  1.7812978447535276e-02  1.7838818987518223e-02  1.7892081354881358e-02  1.7981297236397027e-02  1.8119236756561609e-02  1.8324487669758381e-02  1.8623724603870257e-02  1.9054938157213035e-02  1.9672006690473656e-02  2.0551147325145729e-02  2.1800010481346811e-02  2.3570450651806893e-02  2.6076569705076557e-02  2.9619724086668284e-02  3.4624936884370038e-02  4.1687334213004336e-02  5.1655352830613420e-02  6.5682175579240901e-02  8.5546546642309096e-02  1.1319062204856578e-01  1.5350135086991301e-01  2.0553575356598899e-01  2.9753121812087774e-01  3.6075289227515400e-01  3.5986896310848204e-01  2.9297717565446907e-01  1.9779988365767692e-01  1.4455619440122891e-01  1.0392914358493487e-01  7.6525838472876875e-02  5.7129817542056427e-02  4.3690425761191795e-02  3.4023402552206150e-02  2.7604664515607669e-02  2.2960345793392126e-02  1.9697590695668718e-02  1.7374451783455779e-02  1.5717428619825686e-02  1.4527524883659675e-02  1.3667879508531702e-02  1.3042495778935329e-02  1.2584273495046662e-02  1.2246082692937723e-02  1.1994747089555986e-02  1.1806863724985264e-02  1.1665935601869369e-02  1.1560408219134153e-02  1.1482342929985030e-02  1.1426545544848331e-02  1.1390032497716980e-02  1.1371762768146309e-02  1.1372599219329579e-02  1.1395492701749660e-02  1.1445910239499556e-02  1.1532558467506991e-02  1.1668488941181521e-02  1.1872717226906981e-02  1.2172548182108571e-02  1.2606882190615096e-02  1.3230891839165074e-02  1.4122614253517110e-02  1.5392234670936891e-02  1.7195108198763073e-02  1.9750134019674220e-02  2.3365194610528085e-02  2.8474128834374526e-02  3.5683876180084027e-02  4.5858611940227757e-02  6.0172149471737192e-02  8.0430672185003368e-02  1.0860935949908039e-01  1.4964798836581170e-01  2.0262129994743525e-01  2.9601522157045584e-01  3.6037479437437575e-01  3.5973533583436007e-01  2.9266742083654934e-01  1.9696870005097178e-01  1.4318178340595619e-01  1.0199119688433447e-01  7.4075977867015780e-02  5.4271584956495880e-02  4.0442692363713756e-02  3.0756044337852458e-02  2.3778172218582305e-02  1.9124342099967863e-02  1.5746781182343607e-02  1.3365738207707874e-02  1.1665209044464090e-02  1.0448578119751487e-02  9.5723126263639394e-03  8.9373200041310621e-03  8.4738961581209225e-03  8.1332073289228507e-03  7.8809120742064365e-03  7.6928476016142212e-03  7.5520298561433013e-03  7.4466019593898442e-03  7.3684443889745852e-03  7.3122611670460684e-03  7.2750184143807843e-03  7.2556596678038507e-03  7.2550588949787829e-03  7.2762029066865035e-03  7.3246237007485804e-03  7.4091318955272325e-03  7.5429385939804767e-03  7.7452990616825243e-03  8.0438729495988237e-03  8.4780791566199110e-03  9.1038393866733364e-03  1.0000261732478765e-02  1.1279047906983692e-02  1.3097681453784191e-02  1.5678024500466178e-02  1.9332051668474716e-02  2.4499211413768263e-02  3.1794067853374686e-02  4.2091099388719883e-02  5.6577818559189877e-02  7.7078919705955221e-02  1.0559231997931662e-01  1.4709460405097433e-01  2.0067625493943572e-01  2.9499181774447664e-01  3.6013699487104084e-01  3.5965287253917388e-01  2.9249790183974606e-01  1.9649355849305644e-01  1.4236264810161323e-01  1.0080281156572939e-01  7.2548103914995679e-02  5.2443654739286298e-02  3.8391334212397800e-02  2.8486865259723271e-02  2.1549256111449897e-02  1.6533919680484670e-02  1.3184864082845185e-02  1.0748795695327976e-02  9.0284481468015723e-03  7.7976492760060759e-03  6.9156377644024776e-03  6.2793214957851387e-03  5.8174015022281530e-03  5.4796523808606683e-03  5.2308748895910371e-03  5.0463485034369570e-03  4.9087571645916777e-03  4.8060582981838780e-03  4.7300414183045281e-03  4.6753774869783757e-03  4.6390332776047247e-03  4.6199715138029443e-03  4.6190954959636895e-03  4.6394283493440824e-03  4.6865465716222363e-03  4.7693187831327390e-03  4.9010373409664717e-03  5.1010771055433959e-03  5.3972776430286406e-03  5.8293292731646422e-03  6.4535602643312241e-03  7.3496809129057952e-03  8.6302739796824453e-03  1.0454096421278173e-02  1.3044829815104238e-02  1.6717020103441796e-02  2.1913713399788298e-02  2.9254454254537699e-02  3.9620568656052485e-02  5.4208825111997726e-02  7.4856663168206689e-02  1.0357797690750672e-01  1.4537574759400163e-01  1.9935356107810376e-01  2.9428540949369419e-01  3.5997417238352297e-01  3.5960145510904518e-01  2.9240823521468068e-01  1.9622603973947106e-01  1.4187500249809559e-01  1.0007297941510729e-01  7.1587594401707616e-02  5.1280013489564527e-02  3.7056791695651702e-02  2.7033663035321759e-02  1.9976343723071551e-02  1.5021744201625158e-02  1.1435837602591450e-02  9.0408652617227289e-03  7.2970161583530970e-03  6.0648046318761807e-03  5.1827539731703950e-03  4.5503626997285170e-03  4.0939025899224303e-03  3.7623553532521287e-03  3.5197906663294838e-03  3.3410767166205391e-03  3.2086524838607837e-03  3.1103551939167329e-03  3.0379306030996487e-03  2.9860517051961701e-03  2.9517112380412153e-03  2.9339077543427414e-03  2.9335817606612807e-03  2.9537907850547148e-03  3.0001422002112260e-03  3.0815343485137260e-03  3.2112937211771979e-03  3.4088430311148329e-03  3.7020975131213407e-03  4.1308714879659753e-03  4.7516948128389080e-03  5.6445981262208322e-03  6.9226605877126526e-03  8.7453905679441054e-03  1.1337583890129848e-02  1.5015409219189910e-02  2.0224240118460978e-02  2.7586911687201749e-02  3.7989362160665417e-02  5.2634709283633917e-02  7.3369316805881699e-02  1.0221852214475252e-01  1.4420457328434530e-01  1.9844205713723867e-01  2.9379075899445156e-01  3.5986194796340776e-01  3.5956910574557654e-01  2.9236378692736548e-01  1.9607947252264946e-01  1.4158645902146769e-01  9.9623803661922236e-02  7.0981551839169640e-02  5.0532047705221642e-02  3.6190873186973241e-02  2.6072517861924598e-02  1.8955358255876558e-02  1.3936518055506318e-02  1.0413079121975333e-02  7.8609730161322451e-03  6.1587685732704478e-03  4.9190763994949125e-03  4.0435904799586307e-03  3.4171957434588045e-03  2.9683710281128424e-03  2.6446027513424520e-03  2.4095905618343842e-03  2.2378281270958558e-03  2.1115729211029790e-03  2.0185714061714596e-03  1.9505461705725121e-03  1.9021847882489140e-03  1.8705138391295274e-03  1.8545717778159154e-03  1.8553367493335535e-03  1.8758968863671207e-03  1.9218812317130741e-03  2.0022014385936483e-03  2.1301919705442626e-03  2.3252839610207470e-03  2.6154107674167637e-03  3.0404283860019478e-03  3.6569519855786446e-03  4.5451697151422232e-03  5.8184304957066644e-03  7.6366802116857079e-03  1.0225396174523357e-02  1.3901776229930517e-02  1.9112712184702077e-02  2.6483235597596813e-02  3.6902428631886065e-02  5.1577823455405500e-02  7.2362130445846370e-02  1.0128901301563094e-01  1.4339504418783108e-01  1.9780388640334001e-01  2.9343847415704272e-01  3.5978150805483811e-01  3.5954862245090374e-01  2.9234460612619773e-01  1.9600309340164612e-01  1.4141767638072367e-01  9.9347502615354577e-02  7.0597354300116655e-02  5.0048825193723320e-02  3.5623159451877162e-02  2.5438242782172243e-02  1.8269978972166201e-02  1.3223616563154768e-02  9.6670647062838087e-03  7.1710967089024533e-03  5.3634593082834484e-03  4.1608730976549950e-03  3.2855658101048225e-03  2.6683909448826193e-03  2.2274655291619028e-03  1.9120637119753188e-03  1.6849523983378785e-03  1.5204725576622345e-03  1.4006966514481802e-03  1.3133030117968780e-03  1.2499939774665283e-03  1.2054719737725039e-03  1.1767948474271932e-03  1.1630374551258216e-03  1.1652114191917061e-03  1.1864305060420876e-03  1.2323390036150957e-03  1.3118529381032455e-03  1.4383017480124188e-03  1.6311057473186209e-03  1.9181878624776774e-03  2.3394035720159505e-03  2.9513914299219395e-03  3.8344068878055013e-03  5.1019382398660136e-03  6.9141819412266653e-03  9.4970310722778326e-03  1.3168338558918736e-02  1.8375993117458675e-02  2.5746504999168696e-02  3.6171121878163744e-02  5.0860482874638728e-02  7.1671875847935287e-02  1.0064510992180743e-01  1.4282757007760666e-01  1.9735035752129435e-01  2.9318375750539111e-01  3.5972242682329564e-01  3.5953561793908745e-01  2.9233922263212264e-01  1.9596705462662301e-01  1.4132097646975653e-01  9.9178063608183806e-02  7.0353001800724818e-02  4.9734549976401865e-02  3.5248524897784607e-02  2.5014810419422759e-02  1.7810510917590686e-02  1.2738234324511842e-02  9.1713825482719388e-03  6.6594821697996496e-03  4.8989648756527279e-03  3.6248963179854109e-03  2.7805419145487671e-03  2.1667905196956889e-03  1.7351763507868149e-03  1.4275940185331857e-03  1.2082140059953301e-03  1.0507867240534283e-03  9.3733856699374733e-04  8.5546082470445864e-04  7.9683955693433321e-04  7.5618457642440216e-04  7.3057785669258487e-04  7.1912329813315966e-04  7.2285957891908147e-04  7.4492064798903216e-04  7.9096133018187790e-04  8.6989746694409744e-04  9.9504812252117279e-04  1.1858152522671744e-03  1.4700995915502243e-03  1.8877371866808420e-03  2.4953596976648399e-03  3.3732422491490181e-03  4.6349391288366040e-03  6.4407866303145952e-03  9.0169297609366313e-03  1.2681638589655615e-02  1.7883459129624201e-02  2.5249903881619035e-02  3.5673726094576308e-02  5.0367776706012425e-02  7.1192689150954988e-02  1.0019286737479507e-01  1.4242396958530959e-01  1.9702314747065322e-01  2.9299685318786634e-01  3.5967785842914829e-01  3.5952739464166938e-01  2.9234109312057421e-01  1.9595384043287734e-01  1.4126759949778805e-01  9.9074946873567576e-02  7.0197289022682394e-02  4.9529009869681090e-02  3.4999324094889338e-02  2.4730017398769531e-02  1.7498660932894154e-02  1.2408061489829200e-02  8.8293495674813850e-03  6.3158763493493609e-03  4.5486787010164502e-03  3.3125896436459238e-03  2.4193059077131452e-03  1.8303801448484303e-03  1.4031885981036453e-03  1.1039049986090689e-03  8.9142274491837341e-04  7.4057159461022909e-04  6.3299742596169175e-04  5.5629351132645798e-04  5.0210730782795508e-04  4.6515270975171333e-04  4.4252595986069823e-04  4.3335181054150149e-04  4.3868886088510323e-04  4.6168588330774317e-04  5.0800458771945107e-04  5.8655842167805363e-04  7.1065473024721764e-04  8.9967570531024376e-04  1.1814970273077976e-03  1.5959289247017994e-03  2.1995832637132992e-03  3.0727311570198021e-03  4.3289524240063800e-03  6.1286577045177454e-03  8.6981422364352540e-03  1.2355940469397564e-02  1.7551032278828236e-02  2.4911613028703056e-02  3.5331491832704592e-02  5.0025111670075666e-02  7.0855582307526629e-02  9.9870783769899579e-02  1.4213278156692843e-01  1.9678362440032857e-01  2.9285783410622812e-01  3.5964351024745123e-01  3.5952228065267888e-01  2.9234654825336337e-01  1.9595323536185888e-01  1.4124019295650383e-01  9.9013151694094553e-02  7.0098147910122283e-02  4.9393965592650510e-02  3.4832410147665319e-02  2.4536779829414750e-02  1.7285273289350651e-02  1.2180520025404830e-02  8.5934856185552622e-03  6.0757233912555799e-03  4.31099