<?xml version="1.0"?>
<VTKFile type="UnstructuredGrid"  version="0.1"  >
<UnstructuredGrid>
<Piece  NumberOfPoints="33" NumberOfCells="32">
<Points>
<DataArray  type="Float64"  NumberOfComponents="3"  format="ascii">0 0 0  0.03125 0 0  0.0625 0 0  0.09375 0 0  0.125 0 0  0.15625 0 0  0.1875 0 0  0.21875 0 0  0.25 0 0  0.28125 0 0  0.3125 0 0  0.34375 0 0  0.375 0 0  0.40625 0 0  0.4375 0 0  0.46875 0 0  0.5 0 0  0.53125 0 0  0.5625 0 0  0.59375 0 0  0.625 0 0  0.65625 0 0  0.6875 0 0  0.71875 0 0  0.75 0 0  0.78125 0 0  0.8125 0 0  0.84375 0 0  0.875 0 0  0.90625 0 0  0.9375 0 0  0.96875 0 0  1 0 0  </DataArray>
</Points>
<Cells>
<DataArray  type="UInt32"  Name="connectivity"  format="ascii">0 1  1 2  2 3  3 4  4 5  5 6  6 7  7 8  8 9  9 10  10 11  11 12  12 13  13 14  14 15  15 16  16 17  17 18  18 19  19 20  20 21  21 22  22 23  23 24  24 25  25 26  26 27  27 28  28 29  29 30  30 31  31 32  </DataArray>
<DataArray  type="UInt32"  Name="offsets"  format="ascii">2 4 6 8 10 12 14 16 18 20 22 24 26 28 30 32 34 36 38 40 42 44 46 48 50 52 54 56 58 60 62 64 </DataArray>
<DataArray  type="UInt8"  Name="types"  format="ascii">3 3 3 3 3 3 3 3 3 3 3 3 3 3 3 3 3 3 3 3 3 3 3 3 3 3 3 3 3 3 3 3 </DataArray>
</Cells>
<PointData  Scalars="f_10"> 
<DataArray  type="Float64"  Name="f_10"  format="ascii">0.0000000000000000e+00  7.8119913736947003e-02  1.5620930989576912e-01  2.3423767089834144e-01  3.1217447916653901e-01  3.8998921712223700e-01  4.6765136718731048e-01  5.4513041178363453e-01  6.2239583333308401e-01  6.9941711425753406e-01  7.7616373697885988e-01  8.5260518391893647e-01  9.2871093749963884e-01  1.0044504801428420e+00  1.0797932942704214e+00  1.1547088623042514e+00  1.2291666666662080e+00  1.3031361897781659e+00  1.3765869140620004e+00  1.4494883219395867e+00  1.5218098958327997e+00  1.5935211181635140e+00  1.6645914713536052e+00  1.7349904378249474e+00  1.8046874999994162e+00  1.8736521402988868e+00  1.9418538411452342e+00  2.0092620849603340e+00  2.0758463541660603e+00  2.1415761311842889e+00  2.2064208984368956e+00  2.2703501383457541e+00  2.3333333333327375e+00  </DataArray> 
</PointData> 
</Piece>
</UnstructuredGrid>
</VTKFile>