<?xml version="1.0"?>
<VTKFile type="UnstructuredGrid"  version="0.1"  >
<UnstructuredGrid>
<Piece  NumberOfPoints="1089" NumberOfCells="2048">
<Points>
<DataArray  type="Float64"  NumberOfComponents="3"  format="ascii">0 0 0  0.03125 0 0  0.0625 0 0  0.09375 0 0  0.125 0 0  0.15625 0 0  0.1875 0 0  0.21875 0 0  0.25 0 0  0.28125 0 0  0.3125 0 0  0.34375 0 0  0.375 0 0  0.40625 0 0  0.4375 0 0  0.46875 0 0  0.5 0 0  0.53125 0 0  0.5625 0 0  0.59375 0 0  0.625 0 0  0.65625 0 0  0.6875 0 0  0.71875 0 0  0.75 0 0  0.78125 0 0  0.8125 0 0  0.84375 0 0  0.875 0 0  0.90625 0 0  0.9375 0 0  0.96875 0 0  1 0 0  0 0.03125 0  0.03125 0.03125 0  0.0625 0.03125 0  0.09375 0.03125 0  0.125 0.03125 0  0.15625 0.03125 0  0.1875 0.03125 0  0.21875 0.03125 0  0.25 0.03125 0  0.28125 0.03125 0  0.3125 0.03125 0  0.34375 0.03125 0  0.375 0.03125 0  0.40625 0.03125 0  0.4375 0.03125 0  0.46875 0.03125 0  0.5 0.03125 0  0.53125 0.03125 0  0.5625 0.03125 0  0.59375 0.03125 0  0.625 0.03125 0  0.65625 0.03125 0  0.6875 0.03125 0  0.71875 0.03125 0  0.75 0.03125 0  0.78125 0.03125 0  0.8125 0.03125 0  0.84375 0.03125 0  0.875 0.03125 0  0.90625 0.03125 0  0.9375 0.03125 0  0.96875 0.03125 0  1 0.03125 0  0 0.0625 0  0.03125 0.0625 0  0.0625 0.0625 0  0.09375 0.0625 0  0.125 0.0625 0  0.15625 0.0625 0  0.1875 0.0625 0  0.21875 0.0625 0  0.25 0.0625 0  0.28125 0.0625 0  0.3125 0.0625 0  0.34375 0.0625 0  0.375 0.0625 0  0.40625 0.0625 0  0.4375 0.0625 0  0.46875 0.0625 0  0.5 0.0625 0  0.53125 0.0625 0  0.5625 0.0625 0  0.59375 0.0625 0  0.625 0.0625 0  0.65625 0.0625 0  0.6875 0.0625 0  0.71875 0.0625 0  0.75 0.0625 0  0.78125 0.0625 0  0.8125 0.0625 0  0.84375 0.0625 0  0.875 0.0625 0  0.90625 0.0625 0  0.9375 0.0625 0  0.96875 0.0625 0  1 0.0625 0  0 0.09375 0  0.03125 0.09375 0  0.0625 0.09375 0  0.09375 0.09375 0  0.125 0.09375 0  0.15625 0.09375 0  0.1875 0.09375 0  0.21875 0.09375 0  0.25 0.09375 0  0.28125 0.09375 0  0.3125 0.09375 0  0.34375 0.09375 0  0.375 0.09375 0  0.40625 0.09375 0  0.4375 0.09375 0  0.46875 0.09375 0  0.5 0.09375 0  0.53125 0.09375 0  0.5625 0.09375 0  0.59375 0.09375 0  0.625 0.09375 0  0.65625 0.09375 0  0.6875 0.09375 0  0.71875 0.09375 0  0.75 0.09375 0  0.78125 0.09375 0  0.8125 0.09375 0  0.84375 0.09375 0  0.875 0.09375 0  0.90625 0.09375 0  0.9375 0.09375 0  0.96875 0.09375 0  1 0.09375 0  0 0.125 0  0.03125 0.125 0  0.0625 0.125 0  0.09375 0.125 0  0.125 0.125 0  0.15625 0.125 0  0.1875 0.125 0  0.21875 0.125 0  0.25 0.125 0  0.28125 0.125 0  0.3125 0.125 0  0.34375 0.125 0  0.375 0.125 0  0.40625 0.125 0  0.4375 0.125 0  0.46875 0.125 0  0.5 0.125 0  0.53125 0.125 0  0.5625 0.125 0  0.59375 0.125 0  0.625 0.125 0  0.65625 0.125 0  0.6875 0.125 0  0.71875 0.125 0  0.75 0.125 0  0.78125 0.125 0  0.8125 0.125 0  0.84375 0.125 0  0.875 0.125 0  0.90625 0.125 0  0.9375 0.125 0  0.96875 0.125 0  1 0.125 0  0 0.15625 0  0.03125 0.15625 0  0.0625 0.15625 0  0.09375 0.15625 0  0.125 0.15625 0  0.15625 0.15625 0  0.1875 0.15625 0  0.21875 0.15625 0  0.25 0.15625 0  0.28125 0.15625 0  0.3125 0.15625 0  0.34375 0.15625 0  0.375 0.15625 0  0.40625 0.15625 0  0.4375 0.15625 0  0.46875 0.15625 0  0.5 0.15625 0  0.53125 0.15625 0  0.5625 0.15625 0  0.59375 0.15625 0  0.625 0.15625 0  0.65625 0.15625 0  0.6875 0.15625 0  0.71875 0.15625 0  0.75 0.15625 0  0.78125 0.15625 0  0.8125 0.15625 0  0.84375 0.15625 0  0.875 0.15625 0  0.90625 0.15625 0  0.9375 0.15625 0  0.96875 0.15625 0  1 0.15625 0  0 0.1875 0  0.03125 0.1875 0  0.0625 0.1875 0  0.09375 0.1875 0  0.125 0.1875 0  0.15625 0.1875 0  0.1875 0.1875 0  0.21875 0.1875 0  0.25 0.1875 0  0.28125 0.1875 0  0.3125 0.1875 0  0.34375 0.1875 0  0.375 0.1875 0  0.40625 0.1875 0  0.4375 0.1875 0  0.46875 0.1875 0  0.5 0.1875 0  0.53125 0.1875 0  0.5625 0.1875 0  0.59375 0.1875 0  0.625 0.1875 0  0.65625 0.1875 0  0.6875 0.1875 0  0.71875 0.1875 0  0.75 0.1875 0  0.78125 0.1875 0  0.8125 0.1875 0  0.84375 0.1875 0  0.875 0.1875 0  0.90625 0.1875 0  0.9375 0.1875 0  0.96875 0.1875 0  1 0.1875 0  0 0.21875 0  0.03125 0.21875 0  0.0625 0.21875 0  0.09375 0.21875 0  0.125 0.21875 0  0.15625 0.21875 0  0.1875 0.21875 0  0.21875 0.21875 0  0.25 0.21875 0  0.28125 0.21875 0  0.3125 0.21875 0  0.34375 0.21875 0  0.375 0.21875 0  0.40625 0.21875 0  0.4375 0.21875 0  0.46875 0.21875 0  0.5 0.21875 0  0.53125 0.21875 0  0.5625 0.21875 0  0.59375 0.21875 0  0.625 0.21875 0  0.65625 0.21875 0  0.6875 0.21875 0  0.71875 0.21875 0  0.75 0.21875 0  0.78125 0.21875 0  0.8125 0.21875 0  0.84375 0.21875 0  0.875 0.21875 0  0.90625 0.21875 0  0.9375 0.21875 0  0.96875 0.21875 0  1 0.21875 0  0 0.25 0  0.03125 0.25 0  0.0625 0.25 0  0.09375 0.25 0  0.125 0.25 0  0.15625 0.25 0  0.1875 0.25 0  0.21875 0.25 0  0.25 0.25 0  0.28125 0.25 0  0.3125 0.25 0  0.34375 0.25 0  0.375 0.25 0  0.40625 0.25 0  0.4375 0.25 0  0.46875 0.25 0  0.5 0.25 0  0.53125 0.25 0  0.5625 0.25 0  0.59375 0.25 0  0.625 0.25 0  0.65625 0.25 0  0.6875 0.25 0  0.71875 0.25 0  0.75 0.25 0  0.78125 0.25 0  0.8125 0.25 0  0.84375 0.25 0  0.875 0.25 0  0.90625 0.25 0  0.9375 0.25 0  0.96875 0.25 0  1 0.25 0  0 0.28125 0  0.03125 0.28125 0  0.0625 0.28125 0  0.09375 0.28125 0  0.125 0.28125 0  0.15625 0.28125 0  0.1875 0.28125 0  0.21875 0.28125 0  0.25 0.28125 0  0.28125 0.28125 0  0.3125 0.28125 0  0.34375 0.28125 0  0.375 0.28125 0  0.40625 0.28125 0  0.4375 0.28125 0  0.46875 0.28125 0  0.5 0.28125 0  0.53125 0.28125 0  0.5625 0.28125 0  0.59375 0.28125 0  0.625 0.28125 0  0.65625 0.28125 0  0.6875 0.28125 0  0.71875 0.28125 0  0.75 0.28125 0  0.78125 0.28125 0  0.8125 0.28125 0  0.84375 0.28125 0  0.875 0.28125 0  0.90625 0.28125 0  0.9375 0.28125 0  0.96875 0.28125 0  1 0.28125 0  0 0.3125 0  0.03125 0.3125 0  0.0625 0.3125 0  0.09375 0.3125 0  0.125 0.3125 0  0.15625 0.3125 0  0.1875 0.3125 0  0.21875 0.3125 0  0.25 0.3125 0  0.28125 0.3125 0  0.3125 0.3125 0  0.34375 0.3125 0  0.375 0.3125 0  0.40625 0.3125 0  0.4375 0.3125 0  0.46875 0.3125 0  0.5 0.3125 0  0.53125 0.3125 0  0.5625 0.3125 0  0.59375 0.3125 0  0.625 0.3125 0  0.65625 0.3125 0  0.6875 0.3125 0  0.71875 0.3125 0  0.75 0.3125 0  0.78125 0.3125 0  0.8125 0.3125 0  0.84375 0.3125 0  0.875 0.3125 0  0.90625 0.3125 0  0.9375 0.3125 0  0.96875 0.3125 0  1 0.3125 0  0 0.34375 0  0.03125 0.34375 0  0.0625 0.34375 0  0.09375 0.34375 0  0.125 0.34375 0  0.15625 0.34375 0  0.1875 0.34375 0  0.21875 0.34375 0  0.25 0.34375 0  0.28125 0.34375 0  0.3125 0.34375 0  0.34375 0.34375 0  0.375 0.34375 0  0.40625 0.34375 0  0.4375 0.34375 0  0.46875 0.34375 0  0.5 0.34375 0  0.53125 0.34375 0  0.5625 0.34375 0  0.59375 0.34375 0  0.625 0.34375 0  0.65625 0.34375 0  0.6875 0.34375 0  0.71875 0.34375 0  0.75 0.34375 0  0.78125 0.34375 0  0.8125 0.34375 0  0.84375 0.34375 0  0.875 0.34375 0  0.90625 0.34375 0  0.9375 0.34375 0  0.96875 0.34375 0  1 0.34375 0  0 0.375 0  0.03125 0.375 0  0.0625 0.375 0  0.09375 0.375 0  0.125 0.375 0  0.15625 0.375 0  0.1875 0.375 0  0.21875 0.375 0  0.25 0.375 0  0.28125 0.375 0  0.3125 0.375 0  0.34375 0.375 0  0.375 0.375 0  0.40625 0.375 0  0.4375 0.375 0  0.46875 0.375 0  0.5 0.375 0  0.53125 0.375 0  0.5625 0.375 0  0.59375 0.375 0  0.625 0.375 0  0.65625 0.375 0  0.6875 0.375 0  0.71875 0.375 0  0.75 0.375 0  0.78125 0.375 0  0.8125 0.375 0  0.84375 0.375 0  0.875 0.375 0  0.90625 0.375 0  0.9375 0.375 0  0.96875 0.375 0  1 0.375 0  0 0.40625 0  0.03125 0.40625 0  0.0625 0.40625 0  0.09375 0.40625 0  0.125 0.40625 0  0.15625 0.40625 0  0.1875 0.40625 0  0.21875 0.40625 0  0.25 0.40625 0  0.28125 0.40625 0  0.3125 0.40625 0  0.34375 0.40625 0  0.375 0.40625 0  0.40625 0.40625 0  0.4375 0.40625 0  0.46875 0.40625 0  0.5 0.40625 0  0.53125 0.40625 0  0.5625 0.40625 0  0.59375 0.40625 0  0.625 0.40625 0  0.65625 0.40625 0  0.6875 0.40625 0  0.71875 0.40625 0  0.75 0.40625 0  0.78125 0.40625 0  0.8125 0.40625 0  0.84375 0.40625 0  0.875 0.40625 0  0.90625 0.40625 0  0.9375 0.40625 0  0.96875 0.40625 0  1 0.40625 0  0 0.4375 0  0.03125 0.4375 0  0.0625 0.4375 0  0.09375 0.4375 0  0.125 0.4375 0  0.15625 0.4375 0  0.1875 0.4375 0  0.21875 0.4375 0  0.25 0.4375 0  0.28125 0.4375 0  0.3125 0.4375 0  0.34375 0.4375 0  0.375 0.4375 0  0.40625 0.4375 0  0.4375 0.4375 0  0.46875 0.4375 0  0.5 0.4375 0  0.53125 0.4375 0  0.5625 0.4375 0  0.59375 0.4375 0  0.625 0.4375 0  0.65625 0.4375 0  0.6875 0.4375 0  0.71875 0.4375 0  0.75 0.4375 0  0.78125 0.4375 0  0.8125 0.4375 0  0.84375 0.4375 0  0.875 0.4375 0  0.90625 0.4375 0  0.9375 0.4375 0  0.96875 0.4375 0  1 0.4375 0  0 0.46875 0  0.03125 0.46875 0  0.0625 0.46875 0  0.09375 0.46875 0  0.125 0.46875 0  0.15625 0.46875 0  0.1875 0.46875 0  0.21875 0.46875 0  0.25 0.46875 0  0.28125 0.46875 0  0.3125 0.46875 0  0.34375 0.46875 0  0.375 0.46875 0  0.40625 0.46875 0  0.4375 0.46875 0  0.46875 0.46875 0  0.5 0.46875 0  0.53125 0.46875 0  0.5625 0.46875 0  0.59375 0.46875 0  0.625 0.46875 0  0.65625 0.46875 0  0.6875 0.46875 0  0.71875 0.46875 0  0.75 0.46875 0  0.78125 0.46875 0  0.8125 0.46875 0  0.84375 0.46875 0  0.875 0.46875 0  0.90625 0.46875 0  0.9375 0.46875 0  0.96875 0.46875 0  1 0.46875 0  0 0.5 0  0.03125 0.5 0  0.0625 0.5 0  0.09375 0.5 0  0.125 0.5 0  0.15625 0.5 0  0.1875 0.5 0  0.21875 0.5 0  0.25 0.5 0  0.28125 0.5 0  0.3125 0.5 0  0.34375 0.5 0  0.375 0.5 0  0.40625 0.5 0  0.4375 0.5 0  0.46875 0.5 0  0.5 0.5 0  0.53125 0.5 0  0.5625 0.5 0  0.59375 0.5 0  0.625 0.5 0  0.65625 0.5 0  0.6875 0.5 0  0.71875 0.5 0  0.75 0.5 0  0.78125 0.5 0  0.8125 0.5 0  0.84375 0.5 0  0.875 0.5 0  0.90625 0.5 0  0.9375 0.5 0  0.96875 0.5 0  1 0.5 0  0 0.53125 0  0.03125 0.53125 0  0.0625 0.53125 0  0.09375 0.53125 0  0.125 0.53125 0  0.15625 0.53125 0  0.1875 0.53125 0  0.21875 0.53125 0  0.25 0.53125 0  0.28125 0.53125 0  0.3125 0.53125 0  0.34375 0.53125 0  0.375 0.53125 0  0.40625 0.53125 0  0.4375 0.53125 0  0.46875 0.53125 0  0.5 0.53125 0  0.53125 0.53125 0  0.5625 0.53125 0  0.59375 0.53125 0  0.625 0.53125 0  0.65625 0.53125 0  0.6875 0.53125 0  0.71875 0.53125 0  0.75 0.53125 0  0.78125 0.531
[...]
<PointData  Scalars="f_8"> 
<DataArray  type="Float64"  Name="f_8"  format="ascii">1.0000000000000000e+00  1.0009765625000000e+00  1.0039062500000000e+00  1.0087890625000000e+00  1.0156250000000000e+00  1.0244140625000000e+00  1.0351562500000000e+00  1.0478515625000000e+00  1.0625000000000000e+00  1.0791015625000000e+00  1.0976562500000000e+00  1.1181640625000000e+00  1.1406250000000000e+00  1.1650390625000000e+00  1.1914062500000000e+00  1.2197265625000000e+00  1.2500000000000000e+00  1.2822265625000000e+00  1.3164062500000000e+00  1.3525390625000000e+00  1.3906250000000000e+00  1.4306640625000000e+00  1.4726562500000000e+00  1.5166015625000000e+00  1.5625000000000002e+00  1.6103515624999998e+00  1.6601562499999998e+00  1.7119140625000000e+00  1.7656250000000000e+00  1.8212890625000000e+00  1.8789062500000002e+00  1.9384765625000002e+00  2.0000000000000000e+00  1.0019531250000000e+00  1.0029296875000138e+00  1.0058593750000255e+00  1.0107421875000349e+00  1.0175781250000429e+00  1.0263671875000495e+00  1.0371093750000573e+00  1.0498046875000635e+00  1.0644531250000684e+00  1.0810546875000728e+00  1.0996093750000770e+00  1.1201171875000808e+00  1.1425781250000839e+00  1.1669921875000875e+00  1.1933593750000897e+00  1.2216796875000913e+00  1.2519531250000928e+00  1.2841796875000930e+00  1.3183593750000937e+00  1.3544921875000941e+00  1.3925781250000937e+00  1.4326171875000935e+00  1.4746093750000906e+00  1.5185546875000886e+00  1.5644531250000850e+00  1.6123046875000822e+00  1.6621093750000759e+00  1.7138671875000686e+00  1.7675781250000600e+00  1.8232421875000502e+00  1.8808593750000371e+00  1.9404296875000204e+00  2.0019531250000000e+00  1.0078125000000000e+00  1.0087890625000253e+00  1.0117187500000482e+00  1.0166015625000673e+00  1.0234375000000837e+00  1.0322265625000975e+00  1.0429687500001110e+00  1.0556640625001226e+00  1.0703125000001326e+00  1.0869140625001417e+00  1.1054687500001497e+00  1.1259765625001572e+00  1.1484375000001634e+00  1.1728515625001683e+00  1.1992187500001734e+00  1.2275390625001776e+00  1.2578125000001796e+00  1.2900390625001814e+00  1.3242187500001825e+00  1.3603515625001825e+00  1.3984375000001807e+00  1.4384765625001794e+00  1.4804687500001754e+00  1.5244140625001712e+00  1.5703125000001636e+00  1.6181640625001565e+00  1.6679687500001448e+00  1.7197265625001308e+00  1.7734375000001141e+00  1.8291015625000944e+00  1.8867187500000695e+00  1.9462890625000373e+00  2.0078125000000000e+00  1.0175781250000000e+00  1.0185546875000360e+00  1.0214843750000677e+00  1.0263671875000950e+00  1.0332031250001190e+00  1.0419921875001397e+00  1.0527343750001588e+00  1.0654296875001754e+00  1.0800781250001905e+00  1.0966796875002041e+00  1.1152343750002163e+00  1.1357421875002267e+00  1.1582031250002358e+00  1.1826171875002434e+00  1.2089843750002505e+00  1.2373046875002554e+00  1.2675781250002596e+00  1.2998046875002618e+00  1.3339843750002636e+00  1.3701171875002622e+00  1.4082031250002605e+00  1.4482421875002562e+00  1.4902343750002518e+00  1.5341796875002434e+00  1.5800781250002338e+00  1.6279296875002205e+00  1.6777343750002041e+00  1.7294921875001839e+00  1.7832031250001603e+00  1.8388671875001312e+00  1.8964843750000957e+00  1.9560546875000515e+00  2.0175781250000000e+00  1.0312500000000000e+00  1.0322265625000449e+00  1.0351562500000850e+00  1.0400390625001199e+00  1.0468750000001505e+00  1.0556640625001783e+00  1.0664062500002021e+00  1.0791015625002243e+00  1.0937500000002440e+00  1.1103515625002609e+00  1.1289062500002769e+00  1.1494140625002909e+00  1.1718750000003029e+00  1.1962890625003131e+00  1.2226562500003222e+00  1.2509765625003280e+00  1.2812500000003337e+00  1.3134765625003364e+00  1.3476562500003373e+00  1.3837890625003362e+00  1.4218750000003331e+00  1.4619140625003277e+00  1.5039062500003204e+00  1.5478515625003095e+00  1.5937500000002953e+00  1.6416015625002780e+00  1.6914062500002565e+00  1.7431640625002311e+00  1.7968750000002007e+00  1.8525390625001628e+00  1.9101562500001179e+00  1.9697265625000631e+00  2.0312500000000000e+00  1.0488281250000000e+00  1.0498046875000520e+00  1.0527343750000993e+00  1.0576171875001414e+00  1.0644531250001796e+00  1.0732421875002127e+00  1.0839843750002425e+00  1.0966796875002687e+00  1.1113281250002927e+00  1.1279296875003140e+00  1.1464843750003335e+00  1.1669921875003502e+00  1.1894531250003650e+00  1.2138671875003766e+00  1.2402343750003877e+00  1.2685546875003952e+00  1.2988281250004012e+00  1.3310546875004041e+00  1.3652343750004055e+00  1.4013671875004039e+00  1.4394531250003995e+00  1.4794921875003930e+00  1.5214843750003837e+00  1.5654296875003693e+00  1.6113281250003522e+00  1.6591796875003302e+00  1.7089843750003038e+00  1.7607421875002716e+00  1.8144531250002347e+00  1.8701171875001890e+00  1.9277343750001366e+00  1.9873046875000715e+00  2.0488281250000000e+00  1.0703125000000000e+00  1.0712890625000584e+00  1.0742187500001128e+00  1.0791015625001612e+00  1.0859375000002054e+00  1.0947265625002449e+00  1.1054687500002787e+00  1.1181640625003102e+00  1.1328125000003380e+00  1.1494140625003628e+00  1.1679687500003855e+00  1.1884765625004050e+00  1.2109375000004212e+00  1.2353515625004357e+00  1.2617187500004479e+00  1.2900390625004572e+00  1.3203125000004627e+00  1.3525390625004672e+00  1.3867187500004674e+00  1.4228515625004658e+00  1.4609375000004605e+00  1.5009765625004523e+00  1.5429687500004401e+00  1.5869140625004248e+00  1.6328125000004039e+00  1.6806640625003784e+00  1.7304687500003459e+00  1.7822265625003091e+00  1.8359375000002638e+00  1.8916015625002134e+00  1.9492187500001532e+00  2.0087890625000813e+00  2.0703125000000000e+00  1.0957031250000000e+00  1.0966796875000648e+00  1.0996093750001255e+00  1.1044921875001803e+00  1.1113281250002300e+00  1.1201171875002742e+00  1.1308593750003133e+00  1.1435546875003484e+00  1.1582031250003806e+00  1.1748046875004086e+00  1.1933593750004341e+00  1.2138671875004559e+00  1.2363281250004750e+00  1.2607421875004914e+00  1.2871093750005045e+00  1.3154296875005143e+00  1.3457031250005216e+00  1.3779296875005260e+00  1.4121093750005260e+00  1.4482421875005227e+00  1.4863281250005171e+00  1.5263671875005065e+00  1.5683593750004929e+00  1.6123046875004736e+00  1.6582031250004503e+00  1.7060546875004203e+00  1.7558593750003846e+00  1.8076171875003408e+00  1.8613281250002922e+00  1.9169921875002345e+00  1.9746093750001674e+00  2.0341796875000875e+00  2.0957031250000000e+00  1.1250000000000000e+00  1.1259765625000704e+00  1.1289062500001372e+00  1.1337890625001974e+00  1.1406250000002514e+00  1.1494140625003004e+00  1.1601562500003437e+00  1.1728515625003835e+00  1.1875000000004192e+00  1.2041015625004496e+00  1.2226562500004783e+00  1.2431640625005029e+00  1.2656250000005234e+00  1.2900390625005409e+00  1.3164062500005553e+00  1.3447265625005669e+00  1.3750000000005747e+00  1.4072265625005780e+00  1.4414062500005784e+00  1.4775390625005747e+00  1.5156250000005669e+00  1.5556640625005556e+00  1.5976562500005391e+00  1.6416015625005185e+00  1.6875000000004916e+00  1.7353515625004610e+00  1.7851562500004199e+00  1.8369140625003715e+00  1.8906250000003155e+00  1.9462890625002527e+00  2.0039062500001803e+00  2.0634765625000941e+00  2.1250000000000000e+00  1.1582031250000000e+00  1.1591796875000762e+00  1.1621093750001474e+00  1.1669921875002123e+00  1.1738281250002709e+00  1.1826171875003237e+00  1.1933593750003710e+00  1.2060546875004154e+00  1.2207031250004543e+00  1.2373046875004883e+00  1.2558593750005191e+00  1.2763671875005458e+00  1.2988281250005684e+00  1.3232421875005869e+00  1.3496093750006029e+00  1.3779296875006144e+00  1.4082031250006233e+00  1.4404296875006271e+00  1.4746093750006271e+00  1.5107421875006226e+00  1.5488281250006146e+00  1.5888671875006015e+00  1.6308593750005824e+00  1.6748046875005589e+00  1.7207031250005296e+00  1.7685546875004929e+00  1.8183593750004505e+00  1.8701171875003981e+00  1.9238281250003388e+00  1.9794921875002698e+00  2.0371093750001905e+00  2.0966796875000990e+00  2.1582031250000000e+00  1.1953125000000000e+00  1.1962890625000813e+00  1.1992187500001577e+00  1.2041015625002265e+00  1.2109375000002893e+00  1.2197265625003457e+00  1.2304687500003977e+00  1.2431640625004450e+00  1.2578125000004863e+00  1.2744140625005238e+00  1.2929687500005556e+00  1.3134765625005842e+00  1.3359375000006082e+00  1.3603515625006286e+00  1.3867187500006455e+00  1.4150390625006581e+00  1.4453125000006670e+00  1.4775390625006710e+00  1.5117187500006701e+00  1.5478515625006659e+00  1.5859375000006557e+00  1.6259765625006419e+00  1.6679687500006217e+00  1.7119140625005962e+00  1.7578125000005640e+00  1.8056640625005262e+00  1.8554687500004787e+00  1.9072265625004237e+00  1.9609375000003586e+00  2.0166015625002855e+00  2.0742187500001994e+00  2.1337890625001035e+00  2.1953125000000000e+00  1.2363281250000000e+00  1.2373046875000859e+00  1.2402343750001665e+00  1.2451171875002396e+00  1.2519531250003055e+00  1.2607421875003657e+00  1.2714843750004210e+00  1.2841796875004710e+00  1.2988281250005156e+00  1.3154296875005556e+00  1.3339843750005895e+00  1.3544921875006195e+00  1.3769531250006453e+00  1.4013671875006672e+00  1.4277343750006843e+00  1.4560546875006979e+00  1.4863281250007072e+00  1.5185546875007121e+00  1.5527343750007110e+00  1.5888671875007041e+00  1.6269531250006939e+00  1.6669921875006788e+00  1.7089843750006575e+00  1.7529296875006302e+00  1.7988281250005957e+00  1.8466796875005544e+00  1.8964843750005049e+00  1.9482421875004465e+00  2.0019531250003784e+00  2.0576171875003002e+00  2.1152343750002109e+00  2.1748046875001097e+00  2.2363281250000000e+00  1.2812500000000000e+00  1.2822265625000904e+00  1.2851562500001745e+00  1.2900390625002511e+00  1.2968750000003211e+00  1.3056640625003839e+00  1.3164062500004421e+00  1.3291015625004945e+00  1.3437500000005411e+00  1.3603515625005820e+00  1.3789062500006188e+00  1.3994140625006515e+00  1.4218750000006781e+00  1.4462890625007008e+00  1.4726562500007190e+00  1.5009765625007327e+00  1.5312500000007410e+00  1.5634765625007461e+00  1.5976562500007450e+00  1.6337890625007390e+00  1.6718750000007276e+00  1.7119140625007121e+00  1.7539062500006888e+00  1.7978515625006599e+00  1.8437500000006224e+00  1.8916015625005806e+00  1.9414062500005274e+00  1.9931640625004665e+00  2.0468750000003961e+00  2.1025390625003157e+00  2.1601562500002225e+00  2.2197265625001159e+00  2.2812500000000000e+00  1.3300781250000000e+00  1.3310546875000939e+00  1.3339843750001819e+00  1.3388671875002629e+00  1.3457031250003348e+00  1.3544921875004010e+00  1.3652343750004605e+00  1.3779296875005143e+00  1.3925781250005635e+00  1.4091796875006071e+00  1.4277343750006448e+00  1.4482421875006783e+00  1.4707031250007077e+00  1.4951171875007316e+00  1.5214843750007507e+00  1.5498046875007634e+00  1.5800781250007729e+00  1.6123046875007760e+00  1.6464843750007760e+00  1.6826171875007696e+00  1.7207031250007585e+00  1.7607421875007405e+00  1.8027343750007168e+00  1.8466796875006857e+00  1.8925781250006477e+00  1.9404296875006015e+00  1.9902343750005489e+00  2.0419921875004836e+00  2.0957031250004112e+00  2.1513671875003268e+00  2.2089843750002305e+00  2.2685546875001195e+00  2.3300781250000000e+00  1.3828125000000000e+00  1.3837890625000975e+00  1.3867187500001894e+00  1.3916015625002716e+00  1.3984375000003466e+00  1.4072265625004150e+00  1.4179687500004778e+00  1.4306640625005334e+00  1.4453125000005842e+00  1.4619140625006288e+00  1.4804687500006686e+00  1.5009765625007032e+00  1.5234375000007323e+00  1.5478515625007572e+00  1.5742187500007763e+00  1.6025390625007905e+00  1.6328125000008005e+00  1.6650390625008038e+00  1.6992187500008027e+00  1.7353515625007967e+00  1.7734375000007843e+00  1.8134765625007661e+00  1.8554687500007405e+00  1.8994140625007092e+00  1.9453125000006692e+00  1.9931640625006228e+00  2.0429687500005667e+00  2.0947265625005000e+00  2.1484375000004237e+00  2.2041015625003371e+00  2.2617187500002376e+00  2.3212890625001252e+00  2.3828125000000000e+00  1.4394531250000000e+00  1.4404296875001006e+00  1.4433593750001952e+00  1.4482421875002800e+00  1.4550781250003568e+00  1.4638671875004281e+00  1.4746093750004923e+00  1.4873046875005496e+00  1.5019531250006006e+00  1.5185546875006461e+00  1.5371093750006866e+00  1.5576171875007232e+00  1.5800781250007543e+00  1.6044921875007787e+00  1.6308593750007989e+00  1.6591796875008129e+00  1.6894531250008229e+00  1.7216796875008276e+00  1.7558593750008260e+00  1.7919921875008187e+00  1.8300781250008062e+00  1.8701171875007885e+00  1.9121093750007616e+00  1.9560546875007285e+00  2.0019531250006888e+00  2.0498046875006399e+00  2.0996093750005809e+00  2.1513671875005129e+00  2.2050781250004357e+00  2.2607421875003464e+00  2.3183593750002442e+00  2.3779296875001266e+00  2.4394531250000000e+00  1.5000000000000000e+00  1.5009765625001037e+00  1.5039062500001998e+00  1.5087890625002867e+00  1.5156250000003668e+00  1.5244140625004383e+00  1.5351562500005043e+00  1.5478515625005616e+00  1.5625000000006148e+00  1.5791015625006610e+00  1.5976562500007028e+00  1.6181640625007381e+00  1.6406250000007694e+00  1.6650390625007949e+00  1.6914062500008147e+00  1.7197265625008307e+00  1.7500000000008407e+00  1.7822265625008449e+00  1.8164062500008433e+00  1.8525390625008358e+00  1.8906250000008233e+00  1.9306640625008014e+00  1.9726562500007769e+00  2.0166015625007443e+00  2.0625000000007034e+00  2.1103515625006533e+00  2.1601562500005942e+00  2.2119140625005245e+00  2.2656250000004432e+00  2.3212890625003526e+00  2.3789062500002487e+00  2.4384765625001292e+00  2.5000000000000000e+00  1.5644531250000000e+00  1.5654296875001055e+00  1.5683593750002041e+00  1.5732421875002935e+00  1.5800781250003730e+00  1.5888671875004459e+00  1.5996093750005125e+00  1.6123046875005715e+00  1.6269531250006246e+00  1.6435546875006726e+00  1.6621093750007132e+00  1.6826171875007503e+00  1.7050781250007803e+00  1.7294921875008065e+00  1.7558593750008256e+00  1.7841796875008424e+00  1.8144531250008529e+00  1.8466796875008578e+00  1.8808593750008553e+00  1.9169921875008484e+00  1.9550781250008356e+00  1.9951171875008149e+00  2.0371093750007887e+00  2.0810546875007558e+00  2.1269531250007141e+00  2.1748046875006626e+00  2.2246093750006035e+00  2.2763671875005320e+00  2.3300781250004516e+00  2.3857421875003579e+00  2.4433593750002522e+00  2.5029296875001319e+00  2.5644531250000000e+00  1.6328125000000000e+00  1.6337890625001068e+00  1.6367187500002074e+00  1.6416015625002967e+00  1.6484375000003779e+00  1.6572265625004519e+00  1.6679687500005185e+00  1.6806640625005778e+00  1.6953125000006319e+00  1.7119140625006792e+00  1.7304687500007212e+00  1.7509765625007567e+00  1.7734375000007880e+00  1.7978515625008131e+00  1.8242187500008340e+00  1.8525390625008504e+00  1.8828125000008595e+00  1.9150390625008649e+00  1.9492187500008629e+00  1.9853515625008560e+00  2.0234375000008433e+00  2.0634765625008216e+00  2.1054687500007954e+00  2.1494140625007616e+00  2.1953125000007194e+00  2.2431640625006706e+00  2.2929687500006106e+00  2.3447265625005387e+00  2.3984375000004565e+00  2.4541015625003637e+00  2.5117187500002558e+00  2.5712890625001368e+00  2.6328125000000000e+00  1.7050781250000000e+00  1.7060546875001090e+00  1.7089843750002089e+00  1.7138671875002993e+00  1.7207031250003808e+00  1.7294921875004543e+00  1.7402343750005222e+00  1.7529296875005835e+00  1.7675781250006344e+00  1.7841796875006819e+00  1.8027343750007243e+00  1.8232421875007598e+00  1.8457031250007898e+00  1.8701171875008142e+00  1.8964843750008344e+00  1.9248046875008509e+00  1.9550781250008615e+00  1.9873046875008660e+00  2.0214843750008655e+00  2.0576171875008566e+00  2.0957031250008447e+00  2.1357421875008247e+00  2.1777343750007985e+00  2.2216796875007647e+00  2.2675781250007230e+00  2.3154296875006732e+00  2.3652343750006133e+00  2.4169921875005427e+00  2.4707031250004605e+00  2.5263671875003655e+00  2.5839843750002567e+00  2.6435546875001341e+00  2.7050781250000000e+00  1.7812500000000002e+00  1.7822265625001095e+00  1.7851562500002101e+00  1.7900390625003006e+00  1.7968750000003817e+00  1.8056640625004552e+00  1.8164062500005209e+00  1.8291015625005791e+00  1.8437500000006330e+00  1.8603515625006801e+00  1.8789062500007212e+00  1.8994140625007558e+00  1.9218750000007854e+00  1.9462890625008087e+00  1.9726562500008296e+00  2.0009765625008451e+00  2.0312500000008553e+00  2.0634765625008606e+00  2.0976562500008593e+00  2.1337890625008531e+00  2.1718750000008407e+00  2.2119140625008216e+00  2.2539062500007949e+00  2.2978515625007625e+00  2.3437500000007203e+00  2.3916015625006710e+00  2.4414062500006124e+00  2.4931640625005427e+00  2.5468750000004636e+00  2.6025390625003677e+00  2.6601562500002593e+00  2.7197265625001354e+00  2.7812500000000000e+00  1.8613281249999998e+00  1.8623046875001095e+00  1.8652343750002107e+00  1.8701171875002995e+00  1.8769531250003793e+00  1.8857421875004519e+00  1.8964843750005160e+00  1.9091796875005744e+00  1.9238281250006253e+00  1.9404296875006717e+00  1.9589843750007134e+00  1.9794921875007467e+00  2.0019531250007740e+00  2.0263671875007985e+00  2.0527343750008176e+00  2.0810546875008322e+00  2.1113281250008420e+00  2.1435546875008473e+00  2.1777343750008464e+00  2.2138671875008420e+00  2.2519531250008309e+00  2.2919921875008118e+00  2.3339843750007869e+00  2.3779296875007536e+00  2.4238281250007145e+00  2.4716796875006661e+00  2.5214843750006084e+00  2.5732421875005391e+00  2.6269531250004596e+00  2.6826171875003655e+00  2.7402343750002589e+00  2.7998046875001350e+00  2.8613281250000000e+00  1.9453125000000000e+00  1.9462890625001088e+00  1.9492187500002085e+00  1.9541015625002967e+00  1.9609375000003750e+00  1.9697265625004443e+00  1.9804687500005087e+00  1.9931640625005649e+00  2.0078125000006146e+00  2.0244140625006586e+00  2.0429687500006977e+00  2.0634765625007310e+00  2.0859375000007585e+00  2.1103515625007803e+00  2.1367187500007994e+00  2.1650390625008140e+00  2.1953125000008229e+00  2.2275390625008282e+00  2.2617187500008291e+00  2.2978515625008242e+00  2.3359375000008127e+00  2.3759765625007963e+00  2.4179687500007709e+00  2.4619140625007394e+00  2.5078125000006990e+00  2.5556640625006546e+00  2.6054687500006022e+00  2.6572265625005307e+00  2.7109375000004521e+00  2.7666015625003624e+00  2.8242187500002576e+00  2.8837890625001350e+00  2.9453125000000000e+00  2.0332031250000000e+00  2.0341796875001070e+00  2.0371093750002052e+00  2.0419921875002913e+00  2.0488281250003668e+00  2.0576171875004348e+00  2.0683593750004965e+00  2.0810546875005502e+00  2.0957031250005951e+00  2.1123046875006382e+00  2.1308593750006759e+00  2.1513671875007065e+00  2.1738281250007327e+00  2.1982421875007550e+00  2.2246093750007732e+00  2.2529296875007865e+00  2.2832031250007945e+00  2.3154296875007998e+00  2.3496093750008007e+00  2.3857421875007976e+00  2.4238281250007865e+00  2.4638671875007718e+00  2.5058593750007492e+00  2.5498046875007181e+00  2.5957031250006817e+00  2.6435546875006359e+00  2.6933593750005826e+00  2.7451171875005156e+00  2.7988281250004423e+00  2.8544921875003544e+00  2.9121093750002522e+00  2.9716796875001319e+00  3.0332031250000000e+00  2.1250000000000000e+00  2.1259765625001044e+00  2.1289062500001994e+00  2.1337890625002829e+00  2.1406250000003557e+00  2.1494140625004197e+00  2.1601562500004774e+00  2.1728515625005285e+00  2.1875000000005720e+00  2.2041015625006111e+00  2.2226562500006466e+00  2.2431640625006755e+00  2.2656250000007003e+00  2.2900390625007203e+00  2.3164062500007363e+00  2.3447265625007496e+00  2.3750000000007585e+00  2.4072265625007612e+00  2.4414062500007629e+00  2.4775390625007594e+00  2.5156250000007514e+00  2.5556640625007372e+00  2.5976562500007172e+00  2.6416015625006906e+00  2.6875000000006550e+00  2.7353515625006124e+00  2.7851562500005609e+00  2.8369140625004983e+00  2.8906250000004272e+00  2.9462890625003428e+00  3.0039062500002442e+00  3.0634765625001275e+00  3.1250000000000000e+00  2.2207031250000000e+00  2.2216796875000999e+00  2.2246093750001905e+00  2.2294921875002696e+00  2.2363281250003375e+0