<?xml version="1.0"?>
<VTKFile type="UnstructuredGrid"  version="0.1"  >
<UnstructuredGrid>
<Piece  NumberOfPoints="5101" NumberOfCells="10000">
<Points>
<DataArray  type="Float64"  NumberOfComponents="3"  format="ascii">0 0 0  0.2 0 0  0.4 0 0  0.6 0 0  0.8 0 0  1 0 0  1.2 0 0  1.4 0 0  1.6 0 0  1.8 0 0  2 0 0  2.2 0 0  2.4 0 0  2.6 0 0  2.8 0 0  3 0 0  3.2 0 0  3.4 0 0  3.6 0 0  3.8 0 0  4 0 0  4.2 0 0  4.4 0 0  4.6 0 0  4.8 0 0  5 0 0  5.2 0 0  5.4 0 0  5.6 0 0  5.8 0 0  6 0 0  6.2 0 0  6.4 0 0  6.6 0 0  6.8 0 0  7 0 0  7.2 0 0  7.4 0 0  7.6 0 0  7.8 0 0  8 0 0  8.199999999999999 0 0  8.4 0 0  8.6 0 0  8.800000000000001 0 0  9 0 0  9.199999999999999 0 0  9.4 0 0  9.6 0 0  9.800000000000001 0 0  10 0 0  0 0.2 0  0.2 0.2 0  0.4 0.2 0  0.6 0.2 0  0.8 0.2 0  1 0.2 0  1.2 0.2 0  1.4 0.2 0  1.6 0.2 0  1.8 0.2 0  2 0.2 0  2.2 0.2 0  2.4 0.2 0  2.6 0.2 0  2.8 0.2 0  3 0.2 0  3.2 0.2 0  3.4 0.2 0  3.6 0.2 0  3.8 0.2 0  4 0.2 0  4.2 0.2 0  4.4 0.2 0  4.6 0.2 0  4.8 0.2 0  5 0.2 0  5.2 0.2 0  5.4 0.2 0  5.6 0.2 0  5.8 0.2 0  6 0.2 0  6.2 0.2 0  6.4 0.2 0  6.6 0.2 0  6.8 0.2 0  7 0.2 0  7.2 0.2 0  7.4 0.2 0  7.6 0.2 0  7.8 0.2 0  8 0.2 0  8.199999999999999 0.2 0  8.4 0.2 0  8.6 0.2 0  8.800000000000001 0.2 0  9 0.2 0  9.199999999999999 0.2 0  9.4 0.2 0  9.6 0.2 0  9.800000000000001 0.2 0  10 0.2 0  0 0.4 0  0.2 0.4 0  0.4 0.4 0  0.6 0.4 0  0.8 0.4 0  1 0.4 0  1.2 0.4 0  1.4 0.4 0  1.6 0.4 0  1.8 0.4 0  2 0.4 0  2.2 0.4 0  2.4 0.4 0  2.6 0.4 0  2.8 0.4 0  3 0.4 0  3.2 0.4 0  3.4 0.4 0  3.6 0.4 0  3.8 0.4 0  4 0.4 0  4.2 0.4 0  4.4 0.4 0  4.6 0.4 0  4.8 0.4 0  5 0.4 0  5.2 0.4 0  5.4 0.4 0  5.6 0.4 0  5.8 0.4 0  6 0.4 0  6.2 0.4 0  6.4 0.4 0  6.6 0.4 0  6.8 0.4 0  7 0.4 0  7.2 0.4 0  7.4 0.4 0  7.6 0.4 0  7.8 0.4 0  8 0.4 0  8.199999999999999 0.4 0  8.4 0.4 0  8.6 0.4 0  8.800000000000001 0.4 0  9 0.4 0  9.199999999999999 0.4 0  9.4 0.4 0  9.6 0.4 0  9.800000000000001 0.4 0  10 0.4 0  0 0.6 0  0.2 0.6 0  0.4 0.6 0  0.6 0.6 0  0.8 0.6 0  1 0.6 0  1.2 0.6 0  1.4 0.6 0  1.6 0.6 0  1.8 0.6 0  2 0.6 0  2.2 0.6 0  2.4 0.6 0  2.6 0.6 0  2.8 0.6 0  3 0.6 0  3.2 0.6 0  3.4 0.6 0  3.6 0.6 0  3.8 0.6 0  4 0.6 0  4.2 0.6 0  4.4 0.6 0  4.6 0.6 0  4.8 0.6 0  5 0.6 0  5.2 0.6 0  5.4 0.6 0  5.6 0.6 0  5.8 0.6 0  6 0.6 0  6.2 0.6 0  6.4 0.6 0  6.6 0.6 0  6.8 0.6 0  7 0.6 0  7.2 0.6 0  7.4 0.6 0  7.6 0.6 0  7.8 0.6 0  8 0.6 0  8.199999999999999 0.6 0  8.4 0.6 0  8.6 0.6 0  8.800000000000001 0.6 0  9 0.6 0  9.199999999999999 0.6 0  9.4 0.6 0  9.6 0.6 0  9.800000000000001 0.6 0  10 0.6 0  0 0.8 0  0.2 0.8 0  0.4 0.8 0  0.6 0.8 0  0.8 0.8 0  1 0.8 0  1.2 0.8 0  1.4 0.8 0  1.6 0.8 0  1.8 0.8 0  2 0.8 0  2.2 0.8 0  2.4 0.8 0  2.6 0.8 0  2.8 0.8 0  3 0.8 0  3.2 0.8 0  3.4 0.8 0  3.6 0.8 0  3.8 0.8 0  4 0.8 0  4.2 0.8 0  4.4 0.8 0  4.6 0.8 0  4.8 0.8 0  5 0.8 0  5.2 0.8 0  5.4 0.8 0  5.6 0.8 0  5.8 0.8 0  6 0.8 0  6.2 0.8 0  6.4 0.8 0  6.6 0.8 0  6.8 0.8 0  7 0.8 0  7.2 0.8 0  7.4 0.8 0  7.6 0.8 0  7.8 0.8 0  8 0.8 0  8.199999999999999 0.8 0  8.4 0.8 0  8.6 0.8 0  8.800000000000001 0.8 0  9 0.8 0  9.199999999999999 0.8 0  9.4 0.8 0  9.6 0.8 0  9.800000000000001 0.8 0  10 0.8 0  0 1 0  0.2 1 0  0.4 1 0  0.6 1 0  0.8 1 0  1 1 0  1.2 1 0  1.4 1 0  1.6 1 0  1.8 1 0  2 1 0  2.2 1 0  2.4 1 0  2.6 1 0  2.8 1 0  3 1 0  3.2 1 0  3.4 1 0  3.6 1 0  3.8 1 0  4 1 0  4.2 1 0  4.4 1 0  4.6 1 0  4.8 1 0  5 1 0  5.2 1 0  5.4 1 0  5.6 1 0  5.8 1 0  6 1 0  6.2 1 0  6.4 1 0  6.6 1 0  6.8 1 0  7 1 0  7.2 1 0  7.4 1 0  7.6 1 0  7.8 1 0  8 1 0  8.199999999999999 1 0  8.4 1 0  8.6 1 0  8.800000000000001 1 0  9 1 0  9.199999999999999 1 0  9.4 1 0  9.6 1 0  9.800000000000001 1 0  10 1 0  0 1.2 0  0.2 1.2 0  0.4 1.2 0  0.6 1.2 0  0.8 1.2 0  1 1.2 0  1.2 1.2 0  1.4 1.2 0  1.6 1.2 0  1.8 1.2 0  2 1.2 0  2.2 1.2 0  2.4 1.2 0  2.6 1.2 0  2.8 1.2 0  3 1.2 0  3.2 1.2 0  3.4 1.2 0  3.6 1.2 0  3.8 1.2 0  4 1.2 0  4.2 1.2 0  4.4 1.2 0  4.6 1.2 0  4.8 1.2 0  5 1.2 0  5.2 1.2 0  5.4 1.2 0  5.6 1.2 0  5.8 1.2 0  6 1.2 0  6.2 1.2 0  6.4 1.2 0  6.6 1.2 0  6.8 1.2 0  7 1.2 0  7.2 1.2 0  7.4 1.2 0  7.6 1.2 0  7.8 1.2 0  8 1.2 0  8.199999999999999 1.2 0  8.4 1.2 0  8.6 1.2 0  8.800000000000001 1.2 0  9 1.2 0  9.199999999999999 1.2 0  9.4 1.2 0  9.6 1.2 0  9.800000000000001 1.2 0  10 1.2 0  0 1.4 0  0.2 1.4 0  0.4 1.4 0  0.6 1.4 0  0.8 1.4 0  1 1.4 0  1.2 1.4 0  1.4 1.4 0  1.6 1.4 0  1.8 1.4 0  2 1.4 0  2.2 1.4 0  2.4 1.4 0  2.6 1.4 0  2.8 1.4 0  3 1.4 0  3.2 1.4 0  3.4 1.4 0  3.6 1.4 0  3.8 1.4 0  4 1.4 0  4.2 1.4 0  4.4 1.4 0  4.6 1.4 0  4.8 1.4 0  5 1.4 0  5.2 1.4 0  5.4 1.4 0  5.6 1.4 0  5.8 1.4 0  6 1.4 0  6.2 1.4 0  6.4 1.4 0  6.6 1.4 0  6.8 1.4 0  7 1.4 0  7.2 1.4 0  7.4 1.4 0  7.6 1.4 0  7.8 1.4 0  8 1.4 0  8.199999999999999 1.4 0  8.4 1.4 0  8.6 1.4 0  8.800000000000001 1.4 0  9 1.4 0  9.199999999999999 1.4 0  9.4 1.4 0  9.6 1.4 0  9.800000000000001 1.4 0  10 1.4 0  0 1.6 0  0.2 1.6 0  0.4 1.6 0  0.6 1.6 0  0.8 1.6 0  1 1.6 0  1.2 1.6 0  1.4 1.6 0  1.6 1.6 0  1.8 1.6 0  2 1.6 0  2.2 1.6 0  2.4 1.6 0  2.6 1.6 0  2.8 1.6 0  3 1.6 0  3.2 1.6 0  3.4 1.6 0  3.6 1.6 0  3.8 1.6 0  4 1.6 0  4.2 1.6 0  4.4 1.6 0  4.6 1.6 0  4.8 1.6 0  5 1.6 0  5.2 1.6 0  5.4 1.6 0  5.6 1.6 0  5.8 1.6 0  6 1.6 0  6.2 1.6 0  6.4 1.6 0  6.6 1.6 0  6.8 1.6 0  7 1.6 0  7.2 1.6 0  7.4 1.6 0  7.6 1.6 0  7.8 1.6 0  8 1.6 0  8.199999999999999 1.6 0  8.4 1.6 0  8.6 1.6 0  8.800000000000001 1.6 0  9 1.6 0  9.199999999999999 1.6 0  9.4 1.6 0  9.6 1.6 0  9.800000000000001 1.6 0  10 1.6 0  0 1.8 0  0.2 1.8 0  0.4 1.8 0  0.6 1.8 0  0.8 1.8 0  1 1.8 0  1.2 1.8 0  1.4 1.8 0  1.6 1.8 0  1.8 1.8 0  2 1.8 0  2.2 1.8 0  2.4 1.8 0  2.6 1.8 0  2.8 1.8 0  3 1.8 0  3.2 1.8 0  3.4 1.8 0  3.6 1.8 0  3.8 1.8 0  4 1.8 0  4.2 1.8 0  4.4 1.8 0  4.6 1.8 0  4.8 1.8 0  5 1.8 0  5.2 1.8 0  5.4 1.8 0  5.6 1.8 0  5.8 1.8 0  6 1.8 0  6.2 1.8 0  6.4 1.8 0  6.6 1.8 0  6.8 1.8 0  7 1.8 0  7.2 1.8 0  7.4 1.8 0  7.6 1.8 0  7.8 1.8 0  8 1.8 0  8.199999999999999 1.8 0  8.4 1.8 0  8.6 1.8 0  8.800000000000001 1.8 0  9 1.8 0  9.199999999999999 1.8 0  9.4 1.8 0  9.6 1.8 0  9.800000000000001 1.8 0  10 1.8 0  0 2 0  0.2 2 0  0.4 2 0  0.6 2 0  0.8 2 0  1 2 0  1.2 2 0  1.4 2 0  1.6 2 0  1.8 2 0  2 2 0  2.2 2 0  2.4 2 0  2.6 2 0  2.8 2 0  3 2 0  3.2 2 0  3.4 2 0  3.6 2 0  3.8 2 0  4 2 0  4.2 2 0  4.4 2 0  4.6 2 0  4.8 2 0  5 2 0  5.2 2 0  5.4 2 0  5.6 2 0  5.8 2 0  6 2 0  6.2 2 0  6.4 2 0  6.6 2 0  6.8 2 0  7 2 0  7.2 2 0  7.4 2 0  7.6 2 0  7.8 2 0  8 2 0  8.199999999999999 2 0  8.4 2 0  8.6 2 0  8.800000000000001 2 0  9 2 0  9.199999999999999 2 0  9.4 2 0  9.6 2 0  9.800000000000001 2 0  10 2 0  0 2.2 0  0.2 2.2 0  0.4 2.2 0  0.6 2.2 0  0.8 2.2 0  1 2.2 0  1.2 2.2 0  1.4 2.2 0  1.6 2.2 0  1.8 2.2 0  2 2.2 0  2.2 2.2 0  2.4 2.2 0  2.6 2.2 0  2.8 2.2 0  3 2.2 0  3.2 2.2 0  3.4 2.2 0  3.6 2.2 0  3.8 2.2 0  4 2.2 0  4.2 2.2 0  4.4 2.2 0  4.6 2.2 0  4.8 2.2 0  5 2.2 0  5.2 2.2 0  5.4 2.2 0  5.6 2.2 0  5.8 2.2 0  6 2.2 0  6.2 2.2 0  6.4 2.2 0  6.6 2.2 0  6.8 2.2 0  7 2.2 0  7.2 2.2 0  7.4 2.2 0  7.6 2.2 0  7.8 2.2 0  8 2.2 0  8.199999999999999 2.2 0  8.4 2.2 0  8.6 2.2 0  8.800000000000001 2.2 0  9 2.2 0  9.199999999999999 2.2 0  9.4 2.2 0  9.6 2.2 0  9.800000000000001 2.2 0  10 2.2 0  0 2.4 0  0.2 2.4 0  0.4 2.4 0  0.6 2.4 0  0.8 2.4 0  1 2.4 0  1.2 2.4 0  1.4 2.4 0  1.6 2.4 0  1.8 2.4 0  2 2.4 0  2.2 2.4 0  2.4 2.4 0  2.6 2.4 0  2.8 2.4 0  3 2.4 0  3.2 2.4 0  3.4 2.4 0  3.6 2.4 0  3.8 2.4 0  4 2.4 0  4.2 2.4 0  4.4 2.4 0  4.6 2.4 0  4.8 2.4 0  5 2.4 0  5.2 2.4 0  5.4 2.4 0  5.6 2.4 0  5.8 2.4 0  6 2.4 0  6.2 2.4 0  6.4 2.4 0  6.6 2.4 0  6.8 2.4 0  7 2.4 0  7.2 2.4 0  7.4 2.4 0  7.6 2.4 0  7.8 2.4 0  8 2.4 0  8.199999999999999 2.4 0  8.4 2.4 0  8.6 2.4 0  8.800000000000001 2.4 0  9 2.4 0  9.199999999999999 2.4 0  9.4 2.4 0  9.6 2.4 0  9.800000000000001 2.4 0  10 2.4 0  0 2.6 0  0.2 2.6 0  0.4 2.6 0  0.6 2.6 0  0.8 2.6 0  1 2.6 0  1.2 2.6 0  1.4 2.6 0  1.6 2.6 0  1.8 2.6 0  2 2.6 0  2.2 2.6 0  2.4 2.6 0  2.6 2.6 0  2.8 2.6 0  3 2.6 0  3.2 2.6 0  3.4 2.6 0  3.6 2.6 0  3.8 2.6 0  4 2.6 0  4.2 2.6 0  4.4 2.6 0  4.6 2.6 0  4.8 2.6 0  5 2.6 0  5.2 2.6 0  5.4 2.6 0  5.6 2.6 0  5.8 2.6 0  6 2.6 0  6.2 2.6 0  6.4 2.6 0  6.6 2.6 0  6.8 2.6 0  7 2.6 0  7.2 2.6 0  7.4 2.6 0  7.6 2.6 0  7.8 2.6 0  8 2.6 0  8.199999999999999 2.6 0  8.4 2.6 0  8.6 2.6 0  8.800000000000001 2.6 0  9 2.6 0  9.199999999999999 2.6 0  9.4 2.6 0  9.6 2.6 0  9.800000000000001 2.6 0  10 2.6 0  0 2.8 0  0.2 2.8 0  0.4 2.8 0  0.6 2.8 0  0.8 2.8 0  1 2.8 0  1.2 2.8 0  1.4 2.8 0  1.6 2.8 0  1.8 2.8 0  2 2.8 0  2.2 2.8 0  2.4 2.8 0  2.6 2.8 0  2.8 2.8 0  3 2.8 0  3.2 2.8 0  3.4 2.8 0  3.6 2.8 0  3.8 2.8 0  4 2.8 0  4.2 2.8 0  4.4 2.8 0  4.6 2.8 0  4.8 2.8 0  5 2.8 0  5.2 2.8 0  5.4 2.8 0  5.6 2.8 0  5.8 2.8 0  6 2.8 0  6.2 2.8 0  6.4 2.8 0  6.6 2.8 0  6.8 2.8 0  7 2.8 0  7.2 2.8 0  7.4 2.8 0  7.6 2.8 0  7.8 2.8 0  8 2.8 0  8.199999999999999 2.8 0  8.4 2.8 0  8.6 2.8 0  8.800000000000001 2.8 0  9 2.8 0  9.199999999999999 2.8 0  9.4 2.8 0  9.6 2.8 0  9.800000000000001 2.8 0  10 2.8 0  0 3 0  0.2 3 0  0.4 3 0  0.6 3 0  0.8 3 0  1 3 0  1.2 3 0  1.4 3 0  1.6 3 0  1.8 3 0  2 3 0  2.2 3 0  2.4 3 0  2.6 3 0  2.8 3 0  3 3 0  3.2 3 0  3.4 3 0  3.6 3 0  3.8 3 0  4 3 0  4.2 3 0  4.4 3 0  4.6 3 0  4.8 3 0  5 3 0  5.2 3 0  5.4 3 0  5.6 3 0  5.8 3 0  6 3 0  6.2 3 0  6.4 3 0  6.6 3 0  6.8 3 0  7 3 0  7.2 3 0  7.4 3 0  7.6 3 0  7.8 3 0  8 3 0  8.199999999999999 3 0  8.4 3 0  8.6 3 0  8.800000000000001 3 0  9 3 0  9.199999999999999 3 0  9.4 3 0  9.6 3 0  9.800000000000001 3 0  10 3 0  0 3.2 0  0.2 3.2 0  0.4 3.2 0  0.6 3.2 0  0.8 3.2 0  1 3.2 0  1.2 3.2 0  1.4 3.2 0  1.6 3.2 0  1.8 3.2 0  2 3.2 0  2.2 3.2 0  2.4 3.2 0  2.6 3.2 0  2.8 3.2 0  3 3.2 0  3.2 3.2 0  3.4 3.2 0  3.6 3.2 0  3.8 3.2 0  4 3.2 0  4.2 3.2 0  4.4 3.2 0  4.6 3.2 0  4.8 3.2 0  5 3.2 0  5.2 3.2 0  5.4 3.2 0  5.6 3.2 0  5.8 3.2 0  6 3.2 0  6.2 3.2 0  6.4 3.2 0  6.6 3.2 0  6.8 3.2 0  7 3.2 0  7.2 3.2 0  7.4 3.2 0  7.6 3.2 0  7.8 3.2 0  8 3.2 0  8.199999999999999 3.2 0  8.4 3.2 0  8.6 3.2 0  8.800000000000001 3.2 0  9 3.2 0  9.199999999999999 3.2 0  9.4 3.2 0  9.6 3.2 0  9.800000000000001 3.2 0  10 3.2 0  0 3.4 0  0.2 3.4 0  0.4 3.4 0  0.6 3.4 0  0.8 3.4 0  1 
[...]
<PointData  Scalars="f_5"> 
<DataArray  type="Float64"  Name="f_5"  format="ascii">9.2604059801702464e-03  6.8865349608370263e-02  9.5489539510914059e-02  1.0915846077361797e-01  1.1602839332909644e-01  1.1857695840957178e-01  1.1822169895752146e-01  1.1582045214056687e-01  1.1193570708627405e-01  1.0695811597962833e-01  1.0117558482516985e-01  9.4814281428132974e-02  8.8064003974184499e-02  8.1094198451959462e-02  7.4063923877448826e-02  6.7127585042486712e-02  6.0437485988852013e-02  5.4143868002427535e-02  4.8392924426151729e-02  4.3323243968354339e-02  3.9061167845112807e-02  3.5715609531964135e-02  3.3372940130535253e-02  3.2092554176276926e-02  3.1903676629053981e-02  3.2803842883314914e-02  3.4759288700386061e-02  3.7707251757211166e-02  4.1559948358670350e-02  4.6209787647680779e-02  5.1535253684302451e-02  5.7406839796855340e-02  6.3692457346820872e-02  7.0261842996997448e-02  7.6989623956924810e-02  8.3756835003384530e-02  9.0450782548512965e-02  9.6963193779731602e-02  1.0318655185176920e-01  1.0900837898672244e-01  1.1430295259668102e-01  1.1891945436130846e-01  1.2266470923118133e-01  1.2527713861789624e-01  1.2638553051582380e-01  1.2544006115435977e-01  1.2158908219507157e-01  1.1341520865766122e-01  9.8434704581267074e-02  7.0476506704551606e-02  9.5481669903690666e-03  3.2341270911584149e-03  3.3418797193198457e-02  5.2006777736093510e-02  6.3449740166552249e-02  6.8997258328247310e-02  7.0832800796915063e-02  7.0012196860019457e-02  6.7286781592828138e-02  6.3158675042406257e-02  5.7984978672180588e-02  5.2034029375079865e-02  4.5519983526558117e-02  3.8625222709721657e-02  3.1514817217277967e-02  2.4345643235032230e-02  1.7271630202801053e-02  1.0446002966990005e-02  4.0210733433712620e-03  -1.8539924070390182e-03  -7.0370153548942336e-03  -1.1397782446811012e-02  -1.4823603854941771e-02  -1.7224817527996948e-02  -1.8539583489845159e-02  -1.8737359136544642e-02  -1.7820581115903410e-02  -1.5824290271674483e-02  -1.2813694613347233e-02  -8.8799284343325426e-03  -4.1344873812900855e-03  1.2970378513181560e-03  7.2812613816851677e-03  1.3682716887419110e-02  2.0368488807758448e-02  2.7211417396942269e-02  3.4091687898297418e-02  4.0896730133849438e-02  4.7519408534420375e-02  5.3854456145637830e-02  5.9792983467246770e-02  6.5214650160140206e-02  6.9976676287556092e-02  7.3898179459221350e-02  7.6737152457962449e-02  7.8155728697302709e-02  7.7664104958723473e-02  7.4516740802351711e-02  6.7657549829776245e-02  5.4897526697124721e-02  3.4971938868453803e-02  3.4312353364856270e-03  5.0179827102539659e-04  1.3852871477661351e-02  2.3821331816099404e-02  3.0216635295497892e-02  3.3168040891856647e-02  3.3382846853473917e-02  3.1507560438197933e-02  2.8035386268763712e-02  2.3337408263145169e-02  1.7696228558412845e-02  1.1335414349938611e-02  4.4417011579524551e-03  -2.8191598451093778e-03  -1.0291402916123127e-02  -1.7822017770027471e-02  -2.5256592316217880e-02  -3.2437793141270502e-02  -3.9206188752641404e-02  -4.5403150193382286e-02  -5.0875503658722003e-02  -5.5481487947721529e-02  -5.9097422025449514e-02  -6.1624358154779339e-02  -6.2993929360435102e-02  -6.3172633872362008e-02  -6.2163951843856889e-02  -6.0007951368095024e-02  -5.6778372599417926e-02  -5.2577520199691107e-02  -4.7529579377253772e-02  -4.1773146473329997e-02  -3.5453805956740081e-02  -2.8717499351487850e-02  -2.1705253460624633e-02  -1.4549616017191073e-02  -7.3729380612352104e-03  -2.8748467059168013e-04  6.6027260858955109e-03  1.3198452174410062e-02  1.9400130875488846e-02  2.5100988556666107e-02  3.0177929761006524e-02  3.4479431753585962e-02  3.7809236583092445e-02  3.9904184648018204e-02  4.0405154936983857e-02  3.8824027504480767e-02  3.4513101849390625e-02  2.6760141935245282e-02  1.5415936828802114e-02  7.0468102735779634e-04  -4.6772890675307019e-04  2.0874396355154913e-03  4.6834834138401449e-03  6.2267390044953991e-03  6.0520205029371329e-03  4.2163110215445616e-03  9.2169579326714494e-04  -3.5922724846604130e-03  -9.1073232621812442e-03  -1.5434548825955267e-02  -2.2409062399496936e-02  -2.9881212043289047e-02  -3.7708069725728821e-02  -4.5746487726694991e-02  -5.3848129625880259e-02  -6.1856629072213662e-02  -6.9606969386381931e-02  -7.6927138744060569e-02  -8.3642029800327103e-02  -8.9579395720390975e-02  -9.4577453216206087e-02  -9.8493469581027213e-02  -1.0121243862488764e-01  -1.0265480534625092e-01  -1.0278220148052467e-01  -1.0160033817701221e-01  -9.9158559091826859e-02  -9.5546029401819124e-02  -9.0885028528458520e-02  -8.5322220820686981e-02  -7.9019014752802832e-02  -7.2142149737821293e-02  -6.4855487723866567e-02  -5.7313695660945088e-02  -4.9658166603600340e-02  -4.2015218566638597e-02  -3.4496384866392456e-02  -2.7200490905916697e-02  -2.0217196467060290e-02  -1.3631747032268906e-02  -7.5307883723544598e-03  -2.0092094861717904e-03  2.8219860523614401e-03  6.8269886284560216e-03  9.8367585575849115e-03  1.1644401299958513e-02  1.2014176054323405e-02  1.0741255555075910e-02  7.7616522108825900e-03  3.7213431028079434e-03  -2.5724078052462767e-04  -1.2020585124712826e-03  -5.6320920368829568e-03  -8.5595979898454889e-03  -1.1220016966915632e-02  -1.4386209396852836e-02  -1.8366519332344951e-02  -2.3236461002998362e-02  -2.8961132063134522e-02  -3.5461129183144396e-02  -4.2640677724569968e-02  -5.0397207432527839e-02  -5.8622279830308585e-02  -6.7199027809891371e-02  -7.5998675754526887e-02  -8.4877510623591959e-02  -9.3675146249839747e-02  -1.0221468330418439e-01  -1.1030521278238151e-01  -1.1774693044538033e-01  -1.2433886769923369e-01  -1.2988888944409296e-01  -1.3422519378950085e-01  -1.3720814643306820e-01  -1.3874099730973474e-01  -1.3877796395692910e-01  -1.3732839390167759e-01  -1.3445623492441391e-01  -1.3027475840138458e-01  -1.2493723867336888e-01  -1.1862491008946019e-01  -1.1153386046505227e-01  -1.0386251686248658e-01  -9.5801075751490633e-02  -8.7523737341261690e-02  -7.9184063672372892e-02  -7.0913313873130379e-02  -6.2821291615860531e-02  -5.4999087859440479e-02  -4.7523090302537659e-02  -4.0459706056980807e-02  -3.3870338434361331e-02  -2.7816192447758153e-02  -2.2362346194107558e-02  -1.7580028801499666e-02  -1.3544828060459708e-02  -1.0325914448199342e-02  -7.9565608784795232e-03  -6.3668119509548296e-03  -5.2587984903278637e-03  -3.8817686276795354e-03  -9.8021318723505771e-04  -1.7080177871702056e-03  -1.0968703843028532e-02  -1.7983259677941624e-02  -2.4015331149407494e-02  -2.9799184939156360e-02  -3.5794314138272748e-02  -4.2235935510609113e-02  -4.9230325291969378e-02  -5.6807855005490904e-02  -6.4954120457739531e-02  -7.3625247357008650e-02  -8.2753857610055048e-02  -9.2250024471026190e-02  -1.0199988391699460e-01  -1.1186366264349180e-01  -1.2167440960242781e-01  -1.3123847763518129e-01  -1.4033862939143510e-01  -1.4874041587238346e-01  -1.5620211623936958e-01  -1.6248800302106378e-01  -1.6738404113808861e-01  -1.7071444964749286e-01  -1.7235702134569150e-01  -1.7225489672221322e-01  -1.7042276574610307e-01  -1.6694624385155696e-01  -1.6197429909781513e-01  -1.5570582353661552e-01  -1.4837242444440588e-01  -1.4022001017237834e-01  -1.3149166852678273e-01  -1.2241376888826924e-01  -1.1318637568012062e-01  -1.0397818860337046e-01  -9.4925522368597456e-02  -8.6134406546640299e-02  -7.7684727152861108e-02  -6.9635378548567398e-02  -6.2029547584752411e-02  -5.4899407222696164e-02  -4.8269554642407869e-02  -4.2158385215172109e-02  -3.6576118722802670e-02  -3.1517223414837481e-02  -2.6943237070793557e-02  -2.2749737670186336e-02  -1.8711411484367387e-02  -1.4384636664747564e-02  -9.0617262747700808e-03  -1.4707387745818087e-03  -2.0847261283463946e-03  -1.4756130944965445e-02  -2.4784266851471851e-02  -3.3450070057636658e-02  -4.1412289883334119e-02  -4.9189580433905936e-02  -5.7101720649587094e-02  -6.5346006683647415e-02  -7.4033731568953307e-02  -8.3216998124148053e-02  -9.2904012659485474e-02  -1.0306628742168697e-01  -1.1364066982347282e-01  -1.2452839389834190e-01  -1.3559292573179266e-01  -1.4665814544411734e-01  -1.5750831406456015e-01  -1.6789119267831415e-01  -1.7752548267670171e-01  -1.8611332410234352e-01  -1.9335785677579881e-01  -1.9898484061739041e-01  -2.0276619906844309e-01  -2.0454237161507330e-01  -2.0423988281295621e-01  -2.0188084280954985e-01  -1.9758227161283257e-01  -1.9154497352693148e-01  -1.8403370051544007e-01  -1.7535195385342917e-01  -1.6581553046705391e-01  -1.5572867604954557e-01  -1.4536565041133689e-01  -1.3495905242820919e-01  -1.2469483856124798e-01  -1.1471292278920737e-01  -1.0511169586136973e-01  -9.5954703553039089e-02  -8.7277929871356852e-02  -7.9096466940920693e-02  -7.1409665893846550e-02  -6.4204040253667466e-02  -5.7453157938954537e-02  -5.1113458219523816e-02  -4.5114367440999073e-02  -3.9340215740712760e-02  -3.3600814284339357e-02  -2.7592491050640378e-02  -2.0819845400335598e-02  -1.2656775091557129e-02  -1.8286638437433036e-03  -2.3726454328595868e-03  -1.7467100188393127e-02  -2.9706103145725461e-02  -4.0390707703521968e-02  -5.0110325783067379e-02  -5.9403706815861795e-02  -6.8634577582912873e-02  -7.8058214306912663e-02  -8.7844693951598413e-02  -9.8099741926016337e-02  -1.0887739320950787e-01  -1.2018603722366519e-01  -1.3198957957796870e-01  -1.4420532508449677e-01  -1.5670019922625000e-01  -1.6928700957459170e-01  -1.8172260958558648e-01  -1.9370995796357304e-01  -2.0490600372354006e-01  -2.1493688487744431e-01  -2.2342095974825535e-01  -2.2999867242001296e-01  -2.3436638212983105e-01  -2.3630950969634129e-01  -2.3572929924193317e-01  -2.3265774606960654e-01  -2.2725704727594268e-01  -2.1980297342349914e-01  -2.1065497881766529e-01  -2.0021858088848121e-01  -1.8890670617642399e-01  -1.7710608529023550e-01  -1.6515279778075345e-01  -1.5331852667773369e-01  -1.4180679130991458e-01  -1.3075690356631625e-01  -1.2025277021246279e-01  -1.1033377613835867e-01  -1.0100552571380231e-01  -9.2248890291656241e-02  -8.4026389608101909e-02  -7.6285302654918272e-02  -6.8957019673882833e-02  -6.1952030641546717e-02  -5.5149698539689977e-02  -4.8381595296240060e-02  -4.1407150524312840e-02  -3.3887211281251474e-02  -2.5315883142460645e-02  -1.5144163451090426e-02  -2.0949360098384277e-03  -2.5979692285818994e-03  -1.9388698689315139e-02  -3.3222728193358107e-02  -4.5421948378948425e-02  -5.6521475572468380e-02  -6.7065316499880442e-02  -7.7441125397830032e-02  -8.7942844450660904e-02  -9.8784935891877756e-02  -1.1011796937830279e-01  -1.2203793622166723e-01  -1.3458992089022931e-01  -1.4776704219523437e-01  -1.6150573435249771e-01  -1.7567877373397373e-01  -1.9008786904829378e-01  -2.0445814544670118e-01  -2.1843734884002203e-01  -2.3160284633850661e-01  -2.4347918846675043e-01  -2.5356781293943720e-01  -2.6138824714594694e-01  -2.6652710069454733e-01  -2.6868792326075197e-01  -2.6773276737257728e-01  -2.6370623540842275e-01  -2.5683555112570972e-01  -2.4750534118927106e-01  -2.3621177303977806e-01  -2.2350538843365456e-01  -2.0993378959064107e-01  -1.9599390505551820e-01  -1.8209980862538061e-01  -1.6856759804461555e-01  -1.5561513934780058e-01  -1.4337234888894251e-01  -1.3189716187077838e-01  -1.2119296841908729e-01  -1.1122447951088274e-01  -1.0193020977811879e-01  -9.3230729604181606e-02  -8.5032433821864511e-02  -7.7226818379818943e-02  -6.9685242674946898e-02  -6.2249047633164419e-02  -5.4714689661972161e-02  -4.6813571741807114e-02  -3.8193825350154614e-02  -2.8356422281050501e-02  -1.6816322142485896e-02  -2.2963485398927483e-03  -2.7778936750883264e-03  -2.0703279445665804e-02  -3.5644138674395309e-02  -4.8940311559564631e-02  -6.1086822695758762e-02  -7.2628274815978236e-02  -8.3967327508967682e-02  -9.5426483491190581e-02  -1.0725667994387134e-01  -1.1964895972430524e-01  -1.3274067032768064e-01  -1.4661634066013518e-01  -1.6130356036493415e-01  -1.7676443545229570e-01  -1.9288374745916273e-01  -2.0945568267455744e-01  -2.2617196950422847e-01  -2.4261533855895204e-01  -2.5826308379762297e-01  -2.7250563338661593e-01  -2.8468379910913705e-01  -2.9414526047302797e-01  -3.0031589197643715e-01  -3.0277574287508879e-01  -3.0132483316627712e-01  -2.9602287338923849e-01  -2.8719116678979989e-01  -2.7537382241076519e-01  -2.6126608127542073e-01  -2.4562590502798351e-01  -2.2918781906428576e-01  -2.1259477796621376e-01  -1.9635661375704597e-01  -1.8083571397789772e-01  -1.6625465943642981e-01  -1.5271777845313556e-01  -1.4023862006108873e-01  -1.2876711167710736e-01  -1.1821248905661004e-01  -1.0846016218567262e-01  -9.9382139660582847e-02  -9.0841435086802660e-02  -8.2691158082208935e-02  -7.4768945845186244e-02  -6.6887243846460942e-02  -5.8819670189377796e-02  -5.0283540178710541e-02  -4.0926458932411848e-02  -3.0263756640069642e-02  -1.7862260372144882e-02  -2.4508225085365111e-03  -2.9240519730440936e-03  -2.1529740516080451e-02  -3.7176107604942610e-02  -5.1214949705801920e-02  -6.4112354046702236e-02  -7.6412600146913645e-02  -8.8529950394777041e-02  -1.0081094286431397e-01  -1.1353977530860963e-01  -1.2694742904481141e-01  -1.4121542604485210e-01  -1.5647402803273941e-01  -1.7279466786840014e-01  -1.9017661550425655e-01  -2.0852855187257274e-01  -2.2764677252055340e-01  -2.4719328631513554e-01  -2.6667902713542346e-01  -2.8545937004735961e-01  -3.0275033424197156e-01  -3.1767306896649361e-01  -3.2933020954126369e-01  -3.3690991689086708e-01  -3.3980303483110236e-01  -3.3770925366670235e-01  -3.3070440729264305e-01  -3.1924701248182769e-01  -3.0411773708282552e-01  -2.8630515558953085e-01  -2.6686645268663073e-01  -2.4679615790744291e-01  -2.2692877588829183e-01  -2.0788711992011896e-01  -1.9007405151897300e-01  -1.7369607782109189e-01  -1.5880422010535014e-01  -1.4533930561121328e-01  -1.3317287917048828e-01  -1.2213917878696889e-01  -1.1205689955665589e-01  -1.0274145799315761e-01  -9.4009342987251360e-02  -8.5676264468286328e-02  -7.7550543035295447e-02  -6.9422826593154144e-02  -6.1052745272434795e-02  -5.2152714830995033e-02  -4.2376978485545343e-02  -3.1259214781120495e-02  -1.8409203276165208e-02  -2.5708676543049966e-03  -3.0444654970206747e-03  -2.1946634478647652e-02  -3.7956013761660579e-02  -5.2427756683888063e-02  -6.5806953540972796e-02  -7.8637482015134236e-02  -9.1344179235969797e-02  -1.0429610650482939e-01  -1.1781050598842149e-01  -1.3216066177458871e-01  -1.4757816162932624e-01  -1.6424899739243737e-01  -1.8230267011048640e-01  -2.0179351508655041e-01  -2.2267411077286642e-01  -2.4476190908553860e-01  -2.6770240784763499e-01  -2.9093536324318015e-01  -3.1367437185980696e-01  -3.3491354734648243e-01  -3.5347592524688987e-01  -3.6811393615517984e-01  -3.7766065734188958e-01  -3.8121224742764542e-01  -3.7830251440726631e-01  -3.6901993183397858e-01  -3.5402519355766998e-01  -3.3445524511752767e-01  -3.1173715150296727e-01  -2.8736416664997416e-01  -2.6269309188590667e-01  -2.3880574454840159e-01  -2.1644946594548442e-01  -1.9604640770406939e-01  -1.7774752853410455e-01  -1.6150547659952488e-01  -1.4714645022956804e-01  -1.3442949974011048e-01  -1.2308900868786052e-01  -1.1286086386889600e-01  -1.0349515644869070e-01  -9.4758855938055234e-02  -8.6431534331901649e-02  -7.8296474359425272e-02  -7.0128760976101781e-02  -6.1681194756824882e-02  -5.2668224552875086e-02  -4.2755890485947586e-02  -3.1499452097398482e-02  -1.8545929969640499e-02  -2.6655474321784184e-03  -3.1446461024412049e-03  -2.2006183124807104e-02  -3.8075693975694144e-02  -5.2700745613128930e-02  -6.6310472824706271e-02  -7.9447739912035034e-02  -9.2547480155703146e-02  -1.0600096920858633e-01  -1.2015976988142420e-01  -1.3534359577106247e-01  -1.5184230458939635e-01  -1.6991100317007926e-01  -1.8975663831450856e-01  -2.1151416229407241e-01  -2.3521075054059684e-01  -2.6071781017088036e-01  -2.8769323848372652e-01  -3.1552106685204812e-01  -3.4326228799428604e-01  -3.6963817563251805e-01  -3.9307265116155099e-01  -4.1181791978778071e-01  -4.2417177893305830e-01  -4.2876360403525549e-01  -4.2484673065781681e-01  -4.1250740642271677e-01  -3.9270782385424091e-01  -3.6713130852783199e-01  -3.3787145820011766e-01  -3.0706410540723122e-01  -2.7657054986365393e-01  -2.4778326789336796e-01  -2.2156896219113945e-01  -1.9831908972244328e-01  -1.7805938633847418e-01  -1.6057400817030174e-01  -1.4551514513429789e-01  -1.3248499628212773e-01  -1.2108854319751089e-01  -1.1096168884943057e-01  -1.0178132178917536e-01  -9.3263472471676739e-02  -8.5154341756236901e-02  -7.7217441986423080e-02  -6.9218822864110338e-02  -6.0911268025741767e-02  -5.2017507862276470e-02  -4.2220099296259597e-02  -3.1099472813874610e-02  -1.8336854194414109e-02  -2.7415798447957629e-03  -3.2282738844098741e-03  -2.1743425551908342e-02  -3.7596945143757311e-02  -5.2115644138050289e-02  -6.5715173049540956e-02  -7.8935516012024212e-02  -9.2220617354576109e-02  -1.0598349177808232e-01  -1.2061139351598685e-01  -1.3647500937488510e-01  -1.5393175175922696e-01  -1.7332162567338044e-01  -1.9495309216058823e-01  -2.1907549637271004e-01  -2.4583437265068234e-01  -2.7520668005216459e-01  -3.0691578811481196e-01  -3.4033209270347836e-01  -3.7437554989529143e-01  -4.0745080751942259e-01  -4.3746019613150838e-01  -4.6194543212251049e-01  -4.7839166155334273e-01  -4.8467640473938556e-01  -4.7956779472265709e-01  -4.6310807550890365e-01  -4.3671523762760345e-01  -4.0292846891964140e-01  -3.6487404857364542e-01  -3.2564548921062836e-01  -2.8780296088940283e-01  -2.5310976276003538e-01  -2.2250782890746693e-01  -1.9625648956981018e-01  -1.7413972262609481e-01  -1.5566887873173774e-01  -1.4024227397466327e-01  -1.2725144338345443e-01  -1.1614026197194702e-01  -1.0642930696913255e-01  -9.7717841496816518e-02  -8.9673161296763199e-02  -8.2013902368739136e-02  -7.4491236891501195e-02  -6.6869989789059878e-02  -5.8910329006715841e-02  -5.0349733518352126e-02  -4.0892292565507193e-02  -3.0147905741551729e-02  -1.7831027981458504e-02  -2.8039948116028181e-03  -3.2976399013691137e-03  -2.1182623686064526e-02  -3.6562727305026015e-02  -5.0728708318153182e-02  -6.4082881602063269e-02  -7.7158800618113463e-02  -9.0406912999693251e-02  -1.0426019611919035e-01  -1.1914167851283210e-01  -1.3547637036140439e-01  -1.5369778733609304e-01  -1.7424709663342838e-01  -1.9756132032258825e-01  -2.2404533883675823e-01  -2.5402100188335830e-01  -2.8764599726255791e-01  -3.2479675941812025e-01  -3.6491604149858070e-01  -4.0683994981647925e-01  -4.4864355046225257e-01  -4.8757626992963915e-01  -5.2018516922758329e-01  -5.4271769786941071e-01  -5.5182104374363872e-01  -5.4540393193470005e-01  -5.2336069508653171e-01  -4.8780891103530288e-01  -4.4266205627204963e-01  -3.9268124249000674e-01  -3.4240260647213844e-01  -2.9534057483128340e-01  -2.5365665741366378e-01  -2.1824216674758035e-01  -1.8903506738122761e-01  -1.6539217476407694e-01  -1.4640497979531586e-01  -1.3111788867096597e-01  -1.1865303070881664e-01  -1.0826485423055003e-01  -9.9350005123094581e-02  -9.1432851553165162e-02  -8.4140305901699450e-02  -7.7173901238985224e-02  -7.0283082699519411e-02  -6.3241225341471641e-02  -5.5824378547086828e-02  -4.7791844378134808e-02  -3.8874770827158851e-02  -2.8717481129029641e-02  -1.7068143759410955e-02  -2.8565338855617117e-03  -3.3539551719970633e-03  -2.0342042018882102e-02  -3.5005749948598328e-02  -4.8582533058829938e-02  -6.1459391140572001e-02  -7.4157959502902979e-02  -8.7130654542742325e-02  -1.0082636086284338e-01  -1.1570128845511048e-01  -1.3223504715127249e-01  -1.5094259894306342e-01  -1.7237992561103160e-01  -1.9713909291008072e-01  -2.2582565274541400e-01  -2.5900812211483504e-01  -2.9712599367332904e-01  -3.4034110119461797e-01  -3.8832084092461078e-01  -4.3995707311718507e-01  -4.9305975921936313e-01  -5.4412454654826148e-01  -5.8834712503117359e-01  -6.2009684225431583e-01  -6.3397985237853294e-01  -6.2634516496433368e-01  -5.9669192555216821e-01  -5.4822919316750451e-01  -4.8714229696661604e-01  -4.2084377159223618e-01  -3.5606131139387154e-01  -2.9757045294171691e-01  -2.4785463895878981e-01  -2.0746871156448740e-01  -1.7569812787993008e-01  -1.5119400563151983e-01  -1.3243547355222945e-01  -1.1800085189970000e-0