<?xml version="1.0"?>
<VTKFile type="UnstructuredGrid"  version="0.1"  >
<UnstructuredGrid>
<Piece  NumberOfPoints="5101" NumberOfCells="10000">
<Points>
<DataArray  type="Float64"  NumberOfComponents="3"  format="ascii">0 0 0  0.2 0 0  0.4 0 0  0.6 0 0  0.8 0 0  1 0 0  1.2 0 0  1.4 0 0  1.6 0 0  1.8 0 0  2 0 0  2.2 0 0  2.4 0 0  2.6 0 0  2.8 0 0  3 0 0  3.2 0 0  3.4 0 0  3.6 0 0  3.8 0 0  4 0 0  4.2 0 0  4.4 0 0  4.6 0 0  4.8 0 0  5 0 0  5.2 0 0  5.4 0 0  5.6 0 0  5.8 0 0  6 0 0  6.2 0 0  6.4 0 0  6.6 0 0  6.8 0 0  7 0 0  7.2 0 0  7.4 0 0  7.6 0 0  7.8 0 0  8 0 0  8.199999999999999 0 0  8.4 0 0  8.6 0 0  8.800000000000001 0 0  9 0 0  9.199999999999999 0 0  9.4 0 0  9.6 0 0  9.800000000000001 0 0  10 0 0  0 0.2 0  0.2 0.2 0  0.4 0.2 0  0.6 0.2 0  0.8 0.2 0  1 0.2 0  1.2 0.2 0  1.4 0.2 0  1.6 0.2 0  1.8 0.2 0  2 0.2 0  2.2 0.2 0  2.4 0.2 0  2.6 0.2 0  2.8 0.2 0  3 0.2 0  3.2 0.2 0  3.4 0.2 0  3.6 0.2 0  3.8 0.2 0  4 0.2 0  4.2 0.2 0  4.4 0.2 0  4.6 0.2 0  4.8 0.2 0  5 0.2 0  5.2 0.2 0  5.4 0.2 0  5.6 0.2 0  5.8 0.2 0  6 0.2 0  6.2 0.2 0  6.4 0.2 0  6.6 0.2 0  6.8 0.2 0  7 0.2 0  7.2 0.2 0  7.4 0.2 0  7.6 0.2 0  7.8 0.2 0  8 0.2 0  8.199999999999999 0.2 0  8.4 0.2 0  8.6 0.2 0  8.800000000000001 0.2 0  9 0.2 0  9.199999999999999 0.2 0  9.4 0.2 0  9.6 0.2 0  9.800000000000001 0.2 0  10 0.2 0  0 0.4 0  0.2 0.4 0  0.4 0.4 0  0.6 0.4 0  0.8 0.4 0  1 0.4 0  1.2 0.4 0  1.4 0.4 0  1.6 0.4 0  1.8 0.4 0  2 0.4 0  2.2 0.4 0  2.4 0.4 0  2.6 0.4 0  2.8 0.4 0  3 0.4 0  3.2 0.4 0  3.4 0.4 0  3.6 0.4 0  3.8 0.4 0  4 0.4 0  4.2 0.4 0  4.4 0.4 0  4.6 0.4 0  4.8 0.4 0  5 0.4 0  5.2 0.4 0  5.4 0.4 0  5.6 0.4 0  5.8 0.4 0  6 0.4 0  6.2 0.4 0  6.4 0.4 0  6.6 0.4 0  6.8 0.4 0  7 0.4 0  7.2 0.4 0  7.4 0.4 0  7.6 0.4 0  7.8 0.4 0  8 0.4 0  8.199999999999999 0.4 0  8.4 0.4 0  8.6 0.4 0  8.800000000000001 0.4 0  9 0.4 0  9.199999999999999 0.4 0  9.4 0.4 0  9.6 0.4 0  9.800000000000001 0.4 0  10 0.4 0  0 0.6 0  0.2 0.6 0  0.4 0.6 0  0.6 0.6 0  0.8 0.6 0  1 0.6 0  1.2 0.6 0  1.4 0.6 0  1.6 0.6 0  1.8 0.6 0  2 0.6 0  2.2 0.6 0  2.4 0.6 0  2.6 0.6 0  2.8 0.6 0  3 0.6 0  3.2 0.6 0  3.4 0.6 0  3.6 0.6 0  3.8 0.6 0  4 0.6 0  4.2 0.6 0  4.4 0.6 0  4.6 0.6 0  4.8 0.6 0  5 0.6 0  5.2 0.6 0  5.4 0.6 0  5.6 0.6 0  5.8 0.6 0  6 0.6 0  6.2 0.6 0  6.4 0.6 0  6.6 0.6 0  6.8 0.6 0  7 0.6 0  7.2 0.6 0  7.4 0.6 0  7.6 0.6 0  7.8 0.6 0  8 0.6 0  8.199999999999999 0.6 0  8.4 0.6 0  8.6 0.6 0  8.800000000000001 0.6 0  9 0.6 0  9.199999999999999 0.6 0  9.4 0.6 0  9.6 0.6 0  9.800000000000001 0.6 0  10 0.6 0  0 0.8 0  0.2 0.8 0  0.4 0.8 0  0.6 0.8 0  0.8 0.8 0  1 0.8 0  1.2 0.8 0  1.4 0.8 0  1.6 0.8 0  1.8 0.8 0  2 0.8 0  2.2 0.8 0  2.4 0.8 0  2.6 0.8 0  2.8 0.8 0  3 0.8 0  3.2 0.8 0  3.4 0.8 0  3.6 0.8 0  3.8 0.8 0  4 0.8 0  4.2 0.8 0  4.4 0.8 0  4.6 0.8 0  4.8 0.8 0  5 0.8 0  5.2 0.8 0  5.4 0.8 0  5.6 0.8 0  5.8 0.8 0  6 0.8 0  6.2 0.8 0  6.4 0.8 0  6.6 0.8 0  6.8 0.8 0  7 0.8 0  7.2 0.8 0  7.4 0.8 0  7.6 0.8 0  7.8 0.8 0  8 0.8 0  8.199999999999999 0.8 0  8.4 0.8 0  8.6 0.8 0  8.800000000000001 0.8 0  9 0.8 0  9.199999999999999 0.8 0  9.4 0.8 0  9.6 0.8 0  9.800000000000001 0.8 0  10 0.8 0  0 1 0  0.2 1 0  0.4 1 0  0.6 1 0  0.8 1 0  1 1 0  1.2 1 0  1.4 1 0  1.6 1 0  1.8 1 0  2 1 0  2.2 1 0  2.4 1 0  2.6 1 0  2.8 1 0  3 1 0  3.2 1 0  3.4 1 0  3.6 1 0  3.8 1 0  4 1 0  4.2 1 0  4.4 1 0  4.6 1 0  4.8 1 0  5 1 0  5.2 1 0  5.4 1 0  5.6 1 0  5.8 1 0  6 1 0  6.2 1 0  6.4 1 0  6.6 1 0  6.8 1 0  7 1 0  7.2 1 0  7.4 1 0  7.6 1 0  7.8 1 0  8 1 0  8.199999999999999 1 0  8.4 1 0  8.6 1 0  8.800000000000001 1 0  9 1 0  9.199999999999999 1 0  9.4 1 0  9.6 1 0  9.800000000000001 1 0  10 1 0  0 1.2 0  0.2 1.2 0  0.4 1.2 0  0.6 1.2 0  0.8 1.2 0  1 1.2 0  1.2 1.2 0  1.4 1.2 0  1.6 1.2 0  1.8 1.2 0  2 1.2 0  2.2 1.2 0  2.4 1.2 0  2.6 1.2 0  2.8 1.2 0  3 1.2 0  3.2 1.2 0  3.4 1.2 0  3.6 1.2 0  3.8 1.2 0  4 1.2 0  4.2 1.2 0  4.4 1.2 0  4.6 1.2 0  4.8 1.2 0  5 1.2 0  5.2 1.2 0  5.4 1.2 0  5.6 1.2 0  5.8 1.2 0  6 1.2 0  6.2 1.2 0  6.4 1.2 0  6.6 1.2 0  6.8 1.2 0  7 1.2 0  7.2 1.2 0  7.4 1.2 0  7.6 1.2 0  7.8 1.2 0  8 1.2 0  8.199999999999999 1.2 0  8.4 1.2 0  8.6 1.2 0  8.800000000000001 1.2 0  9 1.2 0  9.199999999999999 1.2 0  9.4 1.2 0  9.6 1.2 0  9.800000000000001 1.2 0  10 1.2 0  0 1.4 0  0.2 1.4 0  0.4 1.4 0  0.6 1.4 0  0.8 1.4 0  1 1.4 0  1.2 1.4 0  1.4 1.4 0  1.6 1.4 0  1.8 1.4 0  2 1.4 0  2.2 1.4 0  2.4 1.4 0  2.6 1.4 0  2.8 1.4 0  3 1.4 0  3.2 1.4 0  3.4 1.4 0  3.6 1.4 0  3.8 1.4 0  4 1.4 0  4.2 1.4 0  4.4 1.4 0  4.6 1.4 0  4.8 1.4 0  5 1.4 0  5.2 1.4 0  5.4 1.4 0  5.6 1.4 0  5.8 1.4 0  6 1.4 0  6.2 1.4 0  6.4 1.4 0  6.6 1.4 0  6.8 1.4 0  7 1.4 0  7.2 1.4 0  7.4 1.4 0  7.6 1.4 0  7.8 1.4 0  8 1.4 0  8.199999999999999 1.4 0  8.4 1.4 0  8.6 1.4 0  8.800000000000001 1.4 0  9 1.4 0  9.199999999999999 1.4 0  9.4 1.4 0  9.6 1.4 0  9.800000000000001 1.4 0  10 1.4 0  0 1.6 0  0.2 1.6 0  0.4 1.6 0  0.6 1.6 0  0.8 1.6 0  1 1.6 0  1.2 1.6 0  1.4 1.6 0  1.6 1.6 0  1.8 1.6 0  2 1.6 0  2.2 1.6 0  2.4 1.6 0  2.6 1.6 0  2.8 1.6 0  3 1.6 0  3.2 1.6 0  3.4 1.6 0  3.6 1.6 0  3.8 1.6 0  4 1.6 0  4.2 1.6 0  4.4 1.6 0  4.6 1.6 0  4.8 1.6 0  5 1.6 0  5.2 1.6 0  5.4 1.6 0  5.6 1.6 0  5.8 1.6 0  6 1.6 0  6.2 1.6 0  6.4 1.6 0  6.6 1.6 0  6.8 1.6 0  7 1.6 0  7.2 1.6 0  7.4 1.6 0  7.6 1.6 0  7.8 1.6 0  8 1.6 0  8.199999999999999 1.6 0  8.4 1.6 0  8.6 1.6 0  8.800000000000001 1.6 0  9 1.6 0  9.199999999999999 1.6 0  9.4 1.6 0  9.6 1.6 0  9.800000000000001 1.6 0  10 1.6 0  0 1.8 0  0.2 1.8 0  0.4 1.8 0  0.6 1.8 0  0.8 1.8 0  1 1.8 0  1.2 1.8 0  1.4 1.8 0  1.6 1.8 0  1.8 1.8 0  2 1.8 0  2.2 1.8 0  2.4 1.8 0  2.6 1.8 0  2.8 1.8 0  3 1.8 0  3.2 1.8 0  3.4 1.8 0  3.6 1.8 0  3.8 1.8 0  4 1.8 0  4.2 1.8 0  4.4 1.8 0  4.6 1.8 0  4.8 1.8 0  5 1.8 0  5.2 1.8 0  5.4 1.8 0  5.6 1.8 0  5.8 1.8 0  6 1.8 0  6.2 1.8 0  6.4 1.8 0  6.6 1.8 0  6.8 1.8 0  7 1.8 0  7.2 1.8 0  7.4 1.8 0  7.6 1.8 0  7.8 1.8 0  8 1.8 0  8.199999999999999 1.8 0  8.4 1.8 0  8.6 1.8 0  8.800000000000001 1.8 0  9 1.8 0  9.199999999999999 1.8 0  9.4 1.8 0  9.6 1.8 0  9.800000000000001 1.8 0  10 1.8 0  0 2 0  0.2 2 0  0.4 2 0  0.6 2 0  0.8 2 0  1 2 0  1.2 2 0  1.4 2 0  1.6 2 0  1.8 2 0  2 2 0  2.2 2 0  2.4 2 0  2.6 2 0  2.8 2 0  3 2 0  3.2 2 0  3.4 2 0  3.6 2 0  3.8 2 0  4 2 0  4.2 2 0  4.4 2 0  4.6 2 0  4.8 2 0  5 2 0  5.2 2 0  5.4 2 0  5.6 2 0  5.8 2 0  6 2 0  6.2 2 0  6.4 2 0  6.6 2 0  6.8 2 0  7 2 0  7.2 2 0  7.4 2 0  7.6 2 0  7.8 2 0  8 2 0  8.199999999999999 2 0  8.4 2 0  8.6 2 0  8.800000000000001 2 0  9 2 0  9.199999999999999 2 0  9.4 2 0  9.6 2 0  9.800000000000001 2 0  10 2 0  0 2.2 0  0.2 2.2 0  0.4 2.2 0  0.6 2.2 0  0.8 2.2 0  1 2.2 0  1.2 2.2 0  1.4 2.2 0  1.6 2.2 0  1.8 2.2 0  2 2.2 0  2.2 2.2 0  2.4 2.2 0  2.6 2.2 0  2.8 2.2 0  3 2.2 0  3.2 2.2 0  3.4 2.2 0  3.6 2.2 0  3.8 2.2 0  4 2.2 0  4.2 2.2 0  4.4 2.2 0  4.6 2.2 0  4.8 2.2 0  5 2.2 0  5.2 2.2 0  5.4 2.2 0  5.6 2.2 0  5.8 2.2 0  6 2.2 0  6.2 2.2 0  6.4 2.2 0  6.6 2.2 0  6.8 2.2 0  7 2.2 0  7.2 2.2 0  7.4 2.2 0  7.6 2.2 0  7.8 2.2 0  8 2.2 0  8.199999999999999 2.2 0  8.4 2.2 0  8.6 2.2 0  8.800000000000001 2.2 0  9 2.2 0  9.199999999999999 2.2 0  9.4 2.2 0  9.6 2.2 0  9.800000000000001 2.2 0  10 2.2 0  0 2.4 0  0.2 2.4 0  0.4 2.4 0  0.6 2.4 0  0.8 2.4 0  1 2.4 0  1.2 2.4 0  1.4 2.4 0  1.6 2.4 0  1.8 2.4 0  2 2.4 0  2.2 2.4 0  2.4 2.4 0  2.6 2.4 0  2.8 2.4 0  3 2.4 0  3.2 2.4 0  3.4 2.4 0  3.6 2.4 0  3.8 2.4 0  4 2.4 0  4.2 2.4 0  4.4 2.4 0  4.6 2.4 0  4.8 2.4 0  5 2.4 0  5.2 2.4 0  5.4 2.4 0  5.6 2.4 0  5.8 2.4 0  6 2.4 0  6.2 2.4 0  6.4 2.4 0  6.6 2.4 0  6.8 2.4 0  7 2.4 0  7.2 2.4 0  7.4 2.4 0  7.6 2.4 0  7.8 2.4 0  8 2.4 0  8.199999999999999 2.4 0  8.4 2.4 0  8.6 2.4 0  8.800000000000001 2.4 0  9 2.4 0  9.199999999999999 2.4 0  9.4 2.4 0  9.6 2.4 0  9.800000000000001 2.4 0  10 2.4 0  0 2.6 0  0.2 2.6 0  0.4 2.6 0  0.6 2.6 0  0.8 2.6 0  1 2.6 0  1.2 2.6 0  1.4 2.6 0  1.6 2.6 0  1.8 2.6 0  2 2.6 0  2.2 2.6 0  2.4 2.6 0  2.6 2.6 0  2.8 2.6 0  3 2.6 0  3.2 2.6 0  3.4 2.6 0  3.6 2.6 0  3.8 2.6 0  4 2.6 0  4.2 2.6 0  4.4 2.6 0  4.6 2.6 0  4.8 2.6 0  5 2.6 0  5.2 2.6 0  5.4 2.6 0  5.6 2.6 0  5.8 2.6 0  6 2.6 0  6.2 2.6 0  6.4 2.6 0  6.6 2.6 0  6.8 2.6 0  7 2.6 0  7.2 2.6 0  7.4 2.6 0  7.6 2.6 0  7.8 2.6 0  8 2.6 0  8.199999999999999 2.6 0  8.4 2.6 0  8.6 2.6 0  8.800000000000001 2.6 0  9 2.6 0  9.199999999999999 2.6 0  9.4 2.6 0  9.6 2.6 0  9.800000000000001 2.6 0  10 2.6 0  0 2.8 0  0.2 2.8 0  0.4 2.8 0  0.6 2.8 0  0.8 2.8 0  1 2.8 0  1.2 2.8 0  1.4 2.8 0  1.6 2.8 0  1.8 2.8 0  2 2.8 0  2.2 2.8 0  2.4 2.8 0  2.6 2.8 0  2.8 2.8 0  3 2.8 0  3.2 2.8 0  3.4 2.8 0  3.6 2.8 0  3.8 2.8 0  4 2.8 0  4.2 2.8 0  4.4 2.8 0  4.6 2.8 0  4.8 2.8 0  5 2.8 0  5.2 2.8 0  5.4 2.8 0  5.6 2.8 0  5.8 2.8 0  6 2.8 0  6.2 2.8 0  6.4 2.8 0  6.6 2.8 0  6.8 2.8 0  7 2.8 0  7.2 2.8 0  7.4 2.8 0  7.6 2.8 0  7.8 2.8 0  8 2.8 0  8.199999999999999 2.8 0  8.4 2.8 0  8.6 2.8 0  8.800000000000001 2.8 0  9 2.8 0  9.199999999999999 2.8 0  9.4 2.8 0  9.6 2.8 0  9.800000000000001 2.8 0  10 2.8 0  0 3 0  0.2 3 0  0.4 3 0  0.6 3 0  0.8 3 0  1 3 0  1.2 3 0  1.4 3 0  1.6 3 0  1.8 3 0  2 3 0  2.2 3 0  2.4 3 0  2.6 3 0  2.8 3 0  3 3 0  3.2 3 0  3.4 3 0  3.6 3 0  3.8 3 0  4 3 0  4.2 3 0  4.4 3 0  4.6 3 0  4.8 3 0  5 3 0  5.2 3 0  5.4 3 0  5.6 3 0  5.8 3 0  6 3 0  6.2 3 0  6.4 3 0  6.6 3 0  6.8 3 0  7 3 0  7.2 3 0  7.4 3 0  7.6 3 0  7.8 3 0  8 3 0  8.199999999999999 3 0  8.4 3 0  8.6 3 0  8.800000000000001 3 0  9 3 0  9.199999999999999 3 0  9.4 3 0  9.6 3 0  9.800000000000001 3 0  10 3 0  0 3.2 0  0.2 3.2 0  0.4 3.2 0  0.6 3.2 0  0.8 3.2 0  1 3.2 0  1.2 3.2 0  1.4 3.2 0  1.6 3.2 0  1.8 3.2 0  2 3.2 0  2.2 3.2 0  2.4 3.2 0  2.6 3.2 0  2.8 3.2 0  3 3.2 0  3.2 3.2 0  3.4 3.2 0  3.6 3.2 0  3.8 3.2 0  4 3.2 0  4.2 3.2 0  4.4 3.2 0  4.6 3.2 0  4.8 3.2 0  5 3.2 0  5.2 3.2 0  5.4 3.2 0  5.6 3.2 0  5.8 3.2 0  6 3.2 0  6.2 3.2 0  6.4 3.2 0  6.6 3.2 0  6.8 3.2 0  7 3.2 0  7.2 3.2 0  7.4 3.2 0  7.6 3.2 0  7.8 3.2 0  8 3.2 0  8.199999999999999 3.2 0  8.4 3.2 0  8.6 3.2 0  8.800000000000001 3.2 0  9 3.2 0  9.199999999999999 3.2 0  9.4 3.2 0  9.6 3.2 0  9.800000000000001 3.2 0  10 3.2 0  0 3.4 0  0.2 3.4 0  0.4 3.4 0  0.6 3.4 0  0.8 3.4 0  1 
[...]
<PointData  Scalars="f_14"> 
<DataArray  type="Float64"  Name="f_14"  format="ascii">9.9370839178753068e-01  9.9324332778142588e-01  9.9208964772968322e-01  9.9057235661238641e-01  9.8893111167462799e-01  9.8732014557782899e-01  9.8582810378879415e-01  9.8449825476531028e-01  9.8334461423565156e-01  9.8236359229460934e-01  9.8154194390278804e-01  9.8086193870960126e-01  9.8030456001348465e-01  9.7985136399334138e-01  9.7948546194963437e-01  9.7919195101542922e-01  9.7895801473422694e-01  9.7877283956967076e-01  9.7862744069100605e-01  9.7851445451268948e-01  9.7842793171085829e-01  9.7836314914333078e-01  9.7831644958261921e-01  9.7828511253077211e-01  9.7826725630621914e-01  9.7826177018520333e-01  9.7826827504388891e-01  9.7828711127177004e-01  9.7831935341710763e-01  9.7836685184412298e-01  9.7843230240874535e-01  9.7851934555109810e-01  9.7863269595089875e-01  9.7877830257170206e-01  9.7896353591778484e-01  9.7919739374207793e-01  9.7949070695558926e-01  9.7985631219591540e-01  9.8030913373860806e-01  9.8086608153750987e-01  9.8154561942064800e-01  9.8236678209974726e-01  9.8334731555803223e-01  9.8450047808378349e-01  9.8582987081324069e-01  9.8732148796922337e-01  9.8893207088556201e-01  9.9057298524691395e-01  9.9209001266007568e-01  9.9324351492745500e-01  9.9370851260722948e-01  9.9324351490519569e-01  9.9306003211935001e-01  9.9232068614342483e-01  9.9116509357887050e-01  9.8980979515141643e-01  9.8841791493622400e-01  9.8709199521460078e-01  9.8588788250587855e-01  9.8482959624729127e-01  9.8392114977607725e-01  9.8315497180006006e-01  9.8251754148695392e-01  9.8199296627931720e-01  9.8156512884970837e-01  9.8121888142642755e-01  9.8094063086379835e-01  9.8071855112079653e-01  9.8054258093972435e-01  9.8040430867329720e-01  9.8029680791760021e-01  9.8021446206708740e-01  9.8015279932878663e-01  9.8010834930194546e-01  9.8007852593691480e-01  9.8006153813911001e-01  9.8005632753175620e-01  9.8006253229361640e-01  9.8008047610454085e-01  9.8011118174335510e-01  9.8015640953297745e-01  9.8021872137682664e-01  9.8030157131502316e-01  9.8040942301678868e-01  9.8054789296144862e-01  9.8072391458914343e-01  9.8094591246495622e-01  9.8122396509753540e-01  9.8156991847642616e-01  9.8199738683175952e-01  9.8252153879588822e-01  9.8315851126445986e-01  9.8392421434529165e-01  9.8483218404366235e-01  9.8589000445712260e-01  9.8709367306198215e-01  9.8841917998333451e-01  9.8981068811525508e-01  9.9116566591073374e-01  9.9232100315438521e-01  9.9306017749129405e-01  9.9324359609429935e-01  9.9209037506147546e-01  9.9232121632118109e-01  9.9235491259948239e-01  9.9195472522731165e-01  9.9122890772029426e-01  9.9033215245967254e-01  9.8938672606679612e-01  9.8847244701861081e-01  9.8763449824979765e-01  9.8689378426357666e-01  9.8625566884770166e-01  9.8571636153165787e-01  9.8526724115430220e-01  9.8489761994703418e-01  9.8459641359489336e-01  9.8435308139735134e-01  9.8415809987770397e-01  9.8400315135392347e-01  9.8388114813666305e-01  9.8378617001564639e-01  9.8371336335163118e-01  9.8365883063532800e-01  9.8361952682986620e-01  9.8359317098439958e-01  9.8357817694010785e-01  9.8357360437348806e-01  9.8357913020086996e-01  9.8359503999080011e-01  9.8362223912186109e-01  9.8366228367749253e-01  9.8371743120037125e-01  9.8379071112390981e-01  9.8388601356804795e-01  9.8400819270281870e-01  9.8416317629633721e-01  9.8435806529049696e-01  9.8460119472961571e-01  9.8490210791046207e-01  9.8527136625491207e-01  9.8572007436528064e-01  9.8625893883360893e-01  9.8689659750168923e-01  9.8763685506577403e-01  9.8847435956104357e-01  9.8938821631123497e-01  9.9033325096819180e-01  9.9122965350760606e-01  9.9195516701440478e-01  9.9235511191670189e-01  9.9232125171391905e-01  9.9209034637124560e-01  9.9057398141591979e-01  9.9116649615555574e-01  9.9195556730084533e-01  9.9236780957776471e-01  9.9236187732425840e-01  9.9205284614650602e-01  9.9156921707170975e-01  9.9101129629893281e-01  9.9044621225921126e-01  9.8991395709885321e-01  9.8943520536206075e-01  9.8901799745713381e-01  9.8866269345128222e-01  9.8836537160724791e-01  9.8812003391662218e-01  9.8791996648469294e-01  9.8775853154034299e-01  9.8762959304999332e-01  9.8752771590748323e-01  9.8744823214242849e-01  9.8738723455864341e-01  9.8734153561905436e-01  9.8730861438408879e-01  9.8728656461670294e-01  9.8727405110973809e-01  9.8727027767530928e-01  9.8727496822337524e-01  9.8728836135143838e-01  9.8731121842391012e-01  9.8734484487113572e-01  9.8739112403902896e-01  9.8745256199494169e-01  9.8753233978255628e-01  9.8763436610393140e-01  9.8776331743513091e-01  9.8792464294641325e-01  9.8812449661416213e-01  9.8836953631139113e-01  9.8866649660343453e-01  9.8902139540300815e-01  9.8943817258481714e-01  9.8991648382343023e-01  9.9044830180558918e-01  9.9101296255028781e-01  9.9157048240699530e-01  9.9205374017554793e-01  9.9236243675815128e-01  9.9236807956368767e-01  9.9195560453015319e-01  9.9116637372162808e-01  9.9057379284655867e-01  9.8893404208242697e-01  9.8981245805322970e-01  9.9123093342673507e-01  9.9236300396280686e-01  9.9302835374012521e-01  9.9328814057751291e-01  9.9326301722074184e-01  9.9306494318102312e-01  9.9277838064023183e-01  9.9246030165667554e-01  9.9214588407374127e-01  9.9185480369932610e-01  9.9159646250456346e-01  9.9137385083448104e-01  9.9118621298291110e-01  9.9103079875477806e-01  9.9090396603669650e-01  9.9080184445827058e-01  9.9072071363902736e-01  9.9065720271376589e-01  9.9060838265505524e-01  9.9057179787089655e-01  9.9054546636694907e-01  9.9052786630216683e-01  9.9051791933617450e-01  9.9051497649812836e-01  9.9051880947881354e-01  9.9052960858689632e-01  9.9054798760286433e-01  9.9057499498248458e-01  9.9061212990208725e-01  9.9066136006376648e-01  9.9072513545952401e-01  9.9080638773624918e-01  9.9090849746778320e-01  9.9103520024402270e-01  9.9119038532558312e-01  9.9137771556335963e-01  9.9159996207252610e-01  9.9185790029706622e-01  9.9214855745897901e-01  9.9246254640034015e-01  9.9278020319043914e-01  9.9306635912372665e-01  9.9326404909242905e-01  9.9328881657294532e-01  9.9302870766241602e-01  9.9236307678345503e-01  9.9123077692751727e-01  9.8981214074164503e-01  9.8893365413738354e-01  9.8732488183033618e-01  9.8842231317513440e-01  9.9033577775534021e-01  9.9205543933024798e-01  9.9328952482246402e-01  9.9404668114830042e-01  9.9443239450176779e-01  9.9456259145098114e-01  9.9453333662175625e-01  9.9441481258267694e-01  9.9425434946007052e-01  9.9408181688806985e-01  9.9391476994427230e-01  9.9376255122667034e-01  9.9362928312918730e-01  9.9351593301640051e-01  9.9342168154908095e-01  9.9334479837023426e-01  9.9328318405617622e-01  9.9323469367330397e-01  9.9319732197996624e-01  9.9316930395938641e-01  9.9314916563634070e-01  9.9313574726480225e-01  9.9312821238382465e-01  9.9312605064735038e-01  9.9312907876613765e-01  9.9313744162116802e-01  9.9315161404744590e-01  9.9317240247081928e-01  9.9320094406359505e-01  9.9323869888724181e-01  9.9328742703036954e-01  9.9334913727478202e-01  9.9342598533771176e-01  9.9352008694937854e-01  9.9363319232826997e-01  9.9376614225809412e-01  9.9391799062996811e-01  9.9408463469024633e-01  9.9425674886505222e-01  9.9441679193502019e-01  9.9453490484633544e-01  9.9456376506984723e-01  9.9443319532427832e-01  9.9404713500455311e-01  9.9328966173236577e-01  9.9205529557209338e-01  9.9033540045204582e-01  9.8842176797369252e-01  9.8732425863172590e-01  9.8583527360985168e-01  9.8709872635776952e-01  9.8939247804060315e-01  9.9157371279693174e-01  9.9326612132310310e-01  9.9443401089626771e-01  9.9516620619521978e-01  9.9557795965685769e-01  9.9577224937106934e-01  9.9582872604118100e-01  9.9580415726536109e-01  9.9573671627010574e-01  9.9565081220940366e-01  9.9556124452199568e-01  9.9547638894693535e-01  9.9540048721439356e-01  9.9533522285573395e-01  9.9528077104821944e-01  9.9523647953924677e-01  9.9520129986115546e-01  9.9517405433562489e-01  9.9515359781995505e-01  9.9513891359468531e-01  9.9512916900554593e-01  9.9512374705977635e-01  9.9512226389621883e-01  9.9512457788877451e-01  9.9513079331263332e-01  9.9514125939059128e-01  9.9515656365262284e-01  9.9517751644290875e-01  9.9520512061406008e-01  9.9524051635666144e-01  9.9528488493159772e-01  9.9533928577531483e-01  9.9540438776653073e-01  9.9548003595852919e-01  9.9556456855240949e-01  9.9565376514388348e-01  9.9573926937799995e-01  9.9580629819888000e-01  9.9583045528337488e-01  9.9577357662632260e-01  9.9557890064070120e-01  9.9516678024982452e-01  9.9443423985707924e-01  9.9326603010675707e-01  9.9157333229890354e-01  9.8939185112971739e-01  9.8709791776115319e-01  9.8583437672817253e-01  9.8450864441494235e-01  9.8589769741552979e-01  9.8848099478793650e-01  9.9101825917551234e-01  9.9307021696337139e-01  9.9456615521860159e-01  9.9557978700270977e-01  9.9622360417980460e-01  9.9660435047185059e-01  9.9680814737902057e-01  9.9689875906630576e-01  9.9692081221698337e-01  9.9690421431178300e-01  9.9686824123873385e-01  9.9682481415524538e-01  9.9678093544881063e-01  9.9674041600356211e-01  9.9670506025403560e-01  9.9667545932969392e-01  9.9665151152162834e-01  9.9663275820683284e-01  9.9661859745520254e-01  9.9660841782133180e-01  9.9660168064434995e-01  9.9659796938655765e-01  9.9659701792319222e-01  9.9659872516711456e-01  9.9660316009628391e-01  9.9661055850473124e-01  9.9662131017622091e-01  9.9663593234197900e-01  9.9665502184579358e-01  9.9667917383790050e-01  9.9670884822950589e-01  9.9674415547607798e-01  9.9678451925692191e-01  9.9682815405540104e-01  9.9687126982499275e-01  9.9690688483606693e-01  9.9692309666303436e-01  9.9690064499569619e-01  9.9680963413518531e-01  9.9660544532418549e-01  9.9622431895234420e-01  9.9558013569962667e-01  9.9456615316448960e-01  9.9306988204075375e-01  9.9101761589630799e-01  9.8848008214908922e-01  9.8589658149361570e-01  9.8450742644344325e-01  9.8335919658134030e-01  9.8484342672106573e-01  9.8764668008683731e-01  9.9045636287645211e-01  9.9278641693015612e-01  9.9453930905414345e-01  9.9577623249131630e-01  9.9660637287992904e-01  9.9713837178427867e-01  9.9746267780753406e-01  9.9764811192339986e-01  9.9774417257357928e-01  9.9778504236486476e-01  9.9779355286842863e-01  9.9778448598486769e-01  9.9776709769933847e-01  9.9774695102203403e-01  9.9772720254544767e-01  9.9770948380793967e-01  9.9769449409154853e-01  9.9768239307321016e-01  9.9767305690570884e-01  9.9766624191979825e-01  9.9766168615477224e-01  9.9765916939054622e-01  9.9765854598417092e-01  9.9765976029615477e-01  9.9766285073449479e-01  9.9766794475476195e-01  9.9767524327194290e-01  9.9768498886194235e-01  9.9769740780110061e-01  9.9771261100288244e-01  9.9773043237310322e-01  9.9775017373742536e-01  9.9777021188763881e-01  9.9778740431072432e-01  9.9779620560289128e-01  9.9778737846221532e-01  9.9774615853489312e-01  9.9764972900209592e-01  9.9746391826832348e-01  9.9713923495665369e-01  9.9660686171064516e-01  9.9577635125856878e-01  9.9453906290853933e-01  9.9278581400180255e-01  9.9045541986344909e-01  9.8764543244811842e-01  9.8484194454626428e-01  9.8335759432545056e-01  9.8238355286882229e-01  9.8394013408685133e-01  9.8691063232205356e-01  9.8992819629554485e-01  9.9247186074751836e-01  9.9442381058811180e-01  9.9583533739579555e-01  9.9681251917683522e-01  9.9746488066314265e-01  9.9788575678827673e-01  9.9814758503002943e-01  9.9830348086766230e-01  9.9839088300420320e-01  9.9843538218258132e-01  9.9845401125167488e-01  9.9845781819293655e-01  9.9845377163569971e-01  9.9844612345368211e-01  9.9843736000938221e-01  9.9842885441302898e-01  9.9842130641866600e-01  9.9841503279120791e-01  9.9841015229219965e-01  9.9840669641183832e-01  9.9840466880331025e-01  9.9840407141696264e-01  9.9840491161671152e-01  9.9840720039466779e-01  9.9841094634287553e-01  9.9841614352307950e-01  9.9842274472893033e-01  9.9843060570458020e-01  9.9843938067602123e-01  9.9844834396566817e-01  9.9845610460978995e-01  9.9846016879577804e-01  9.9845628726359092e-01  9.9843750175413182e-01  9.9839277914065871e-01  9.9830510260941507e-01  9.9814889595517731e-01  9.9788673180488530e-01  9.9746550214931207e-01  9.9681277347773600e-01  9.9583521260716057e-01  9.9442329652661687e-01  9.9247095207118496e-01  9.8992689991835059e-01  9.8690898045428088e-01  9.8393820408897381e-01  9.8238147931467379e-01  9.8156870522279727e-01  9.8318047849464296e-01  9.8627843208769395e-01  9.8945463646049447e-01  9.9216191559836542e-01  9.9426716730728248e-01  9.9581403487187525e-01  9.9690595984985586e-01  9.9765283538126592e-01  9.9814994059456397e-01  9.9847229525709913e-01  9.9867567524297518e-01  9.9879996210941580e-01  9.9887284585471248e-01  9.9891308870285089e-01  9.9893312506945431e-01  9.9894101871142471e-01  9.9894188535322959e-01  9.9893890330387791e-01  9.9893401894936762e-01  9.9892842956275996e-01  9.9892290252100080e-01  9.9891797218693479e-01  9.9891404485800495e-01  9.9891143757371492e-01  9.9891037562260743e-01  9.9891097258032746e-01  9.9891321227323870e-01  9.9891694284232901e-01  9.9892188052176634e-01  9.9892760822716009e-01  9.9893354477739282e-01  9.9893885556685602e-01  9.9894227296091709e-01  9.9894179098900759e-01  9.9893419042441767e-01  9.9891433500572524e-01  9.9887415790258738e-01  9.9880123372316076e-01  9.9867681552947618e-01  9.9847322992350696e-01  9.9815060987803783e-01  9.9765319031796018e-01  9.9690595848449814e-01  9.9581363981339910e-01  9.9426634590971663e-01  9.9216064405488347e-01  9.8945290926246499e-01  9.8627627845794774e-01  9.8317798713719173e-01  9.8156603978600077e-01  9.8089718249597257e-01  9.8255119113982525e-01  9.8574652671387120e-01  9.8904394662837480e-01  9.9187646651360273e-01  9.9409944552926111e-01  9.9575068194453265e-01  9.9693149014395199e-01  9.9775188315341645e-01  9.9830846707453857e-01  9.9867810637009569e-01  9.9891851698486478e-01  9.9907138312857935e-01  9.9916595283901932e-01  9.9922227249827511e-01  9.9925380303538691e-01  9.9926941847894335e-01  9.9927488296634392e-01  9.9927392084084055e-01  9.9926897990994878e-01  9.9926176247609977e-01  9.9925357402599535e-01  9.9924552207936435e-01  9.9923859097330892e-01  9.9923362193702914e-01  9.9923123695660088e-01  9.9923175150777754e-01  9.9923511726845871e-01  9.9924091829948047e-01  9.9924841725073743e-01  9.9925662167504070e-01  9.9926432387820985e-01  9.9927006429848286e-01  9.9927197415758329e-01  9.9926745967761721e-01  9.9925268965136693e-01  9.9922183674705778e-01  9.9916600187840854e-01  9.9907172656126120e-01  9.9891898284405378e-01  9.9867854738455208e-01  9.9830876019663706e-01  9.9775192547648595e-01  9.9693119395040575e-01  9.9574997112591268e-01  9.9409825525576945e-01  9.9187474790418451e-01  9.8904167828561451e-01  9.8574373511196312e-01  9.8254798144540612e-01  9.8089375905708198e-01  9.8035024636786594e-01  9.8203665031386611e-01  9.8530655114315568e-01  9.8869672763687222e-01  9.9162514225170562e-01  9.9393841388026083e-01  9.9566988677428070e-01  9.9691919774860904e-01  9.9779636015311035e-01  9.9839889000938575e-01  9.9880496067455649e-01  9.9907367786012491e-01  9.9924801530696916e-01  9.9935832227742816e-01  9.9942553109558840e-01  9.9946378641828681e-01  9.9948248437582699e-01  9.9948781042278434e-01  9.9948388464360549e-01  9.9947360609189362e-01  9.9945925663931490e-01  9.9944289409604192e-01  9.9942654509910578e-01  9.9941220856522373e-01  9.9940170199657197e-01  9.9939641667271029e-01  9.9939707476542894e-01  9.9940358105795657e-01  9.9941502527960235e-01  9.9942982929280733e-01  9.9944597307175265e-01  9.9946120016977691e-01  9.9947310610118767e-01  9.9947904070997462e-01  9.9947578679705429e-01  9.9945899379411007e-01  9.9942233987636031e-01  9.9935637248441522e-01  9.9924694713527173e-01  9.9907316452413764e-01  9.9880472202635162e-01  9.9839869319956220e-01  9.9779601333635282e-01  9.9691854169971550e-01  9.9566878806444059e-01  9.9393676238802420e-01  9.9162285537771122e-01  9.8869376360647432e-01  9.8530293388308354e-01  9.8203250784687757e-01  9.8034583870138126e-01  9.7990974611947768e-01  9.8162102405601481e-01  9.8494808804526024e-01  9.8840931283102174e-01  9.9141117414521429e-01  9.9379364198724551e-01  9.9558665912378974e-01  9.9688854516631653e-01  9.9780924825373940e-01  9.9844689452668778e-01  9.9888055875547577e-01  9.9917029606759400e-01  9.9935993408044355e-01  9.9948050628206320e-01  9.9955343476121572e-01  9.9959317298854256e-01  9.9960929299073198e-01  9.9960810575709880e-01  9.9959392218187182e-01  9.9957003639093800e-01  9.9953946726227627e-01  9.9950544586603662e-01  9.9947160703467897e-01  9.9944185314116807e-01  9.9941991731664281e-01  9.9940874625225318e-01  9.9940990435521138e-01  9.9942321594633110e-01  9.9944678219471328e-01  9.9947736175282054e-01  9.9951096030840203e-01  9.9954340366039107e-01  9.9957069285250366e-01  9.9958902519902992e-01  9.9959445492261501e-01  9.9958221869908570e-01  9.9954575281668534e-01  9.9947539336868341e-01  9.9935670328450277e-01  9.9916833617259804e-01  9.9887935638994141e-01  9.9844603266918908e-01  9.9780839273744115e-01  9.9688742780762674e-01  9.9558506334492725e-01  9.9379139492495550e-01  9.9140814832836788e-01  9.8840544037748046e-01  9.8494339045945167e-01  9.8161566009716850e-01  9.7990405045467621e-01  9.7955909464395152e-01  9.8128945844153626e-01  9.8466033224437510e-01  9.8817596838031851e-01  9.9123405674426635e-01  9.9366948780993958e-01  9.9550959086269541e-01  9.9685163947863809e-01  9.9780546584637009e-01  9.9846956977933465e-01  9.9892359300829392e-01  9.9922815723799896e-01  9.9942753458748324e-01  9.9955301087053261e-01  9.9962603953349316e-01  9.9966089653136658e-01  9.9966682871270929e-01  9.9964979769092199e-01  9.9961393644574215e-01  9.9956279382443636e-01  9.9950036301126377e-01  9.9943179763997358e-01  9.9936365354727186e-01  9.9930350863954753e-01  9.9925894734980214e-01  9.9923612998365907e-01  9.9923839552289062e-01  9.9926541726386520e-01  9.9931325239267388e-01  9.9937526229132978e-01  9.9944352628436650e-01  9.9951021715204058e-01  9.9956850031468392e-01  9.9961275655829351e-01  9.9963815653388044e-01  9.9963973485329694e-01  9.9961111112656698e-01  9.9954293026359808e-01  9.9942100194147743e-01  9.9922405370510581e-01  9.9892100718735755e-01  9.9846778382091450e-01  9.9780392328666323e-01  9.9684990961698072e-01  9.9550733869914965e-01  9.9366645489641348e-01  9.9123005659786423e-01  9.8817089982571682e-01  9.8465421435929568e-01  9.8128249027516656e-01  9.7955170928914059e-01  9.7928369093572110e-01  9.8102865465741307e-01  9.8443302333802785e-01  9.8799024656204448e-01  9.9109129255199535e-01  9.9356715593183953e-01  9.9544313810623020e-01  9.9681565893066715e-01  9.9779437817800598e-01  9.9847796028343738e-01  9.9894630971554432e-01  9.9926024208769371e-01  9.9946403624262004e-01  9.9958871478320299e-01  9.9965514959939805e-01  9.9967671506077671e-01  9.9966150854648383e-01  9.9961427908542821e-01  9.9953821984852043e-01  9.9943671203543416e-01  9.9931496308261214e-01  9.9918128517189142e-01  9.9904758505567115e-01  9.9892861552264667e-01  9.9883980677099427e-01  9.9879406033426121e-01  9.9879851306259182e-01  9.9885254321853201e-01  9.9894789163346531e-01  9.9907084632532650e-01  9.9920554038650489e-01  9.9933707363474411e-01  9.9945348759280384e-01  9.9954626898583276e-01  9.9960960704169544e-01  9.9963886636467580e-01  9.9962868733126486e-01  9.9957093491336257e-01  9.9945251963243331e-01  9.9925298660269524e-01  9.9894174145373416e-01  9.9847488177350996e-01  9.9779189355589826e-01  9.9681310009371626e-01  9.9544000453919312e-01  9.9356307439011537e-01  9.9108600004731939e-01  9.8798359983891537e-01  9.8442503886707011e-01  9.8101958315686333e-01  9.7927409317049152e-01  9.7907101039731537e-01  9.8082707146639070e-01  9.8425690977745028e-01  9.8784576868311491e-01  9.9097948575203787e-01  9.9348605694295966e-01  9.9538918737085702e-01  9.9678456865297693e-01  9.9778161448938740e-01  9.9847894659265590e-01  9.9895642281308261e-01  9.9927464461225313e-01  9.9947736987051616e-01  9.9959467011240166e