<?xml version="1.0"?>
<VTKFile type="UnstructuredGrid"  version="0.1"  >
<UnstructuredGrid>
<Piece  NumberOfPoints="2111" NumberOfCells="4000">
<Points>
<DataArray  type="Float64"  NumberOfComponents="3"  format="ascii">0 0 0  0.05 0 0  0.1 0 0  0.15 0 0  0.2 0 0  0.25 0 0  0.3 0 0  0.35 0 0  0.4 0 0  0.45 0 0  0.5 0 0  0.55 0 0  0.6 0 0  0.65 0 0  0.7 0 0  0.75 0 0  0.8 0 0  0.85 0 0  0.9 0 0  0.95 0 0  1 0 0  1.05 0 0  1.1 0 0  1.15 0 0  1.2 0 0  1.25 0 0  1.3 0 0  1.35 0 0  1.4 0 0  1.45 0 0  1.5 0 0  1.55 0 0  1.6 0 0  1.65 0 0  1.7 0 0  1.75 0 0  1.8 0 0  1.85 0 0  1.9 0 0  1.95 0 0  2 0 0  2.05 0 0  2.1 0 0  2.15 0 0  2.2 0 0  2.25 0 0  2.3 0 0  2.35 0 0  2.4 0 0  2.45 0 0  2.5 0 0  2.55 0 0  2.6 0 0  2.65 0 0  2.7 0 0  2.75 0 0  2.8 0 0  2.85 0 0  2.9 0 0  2.95 0 0  3 0 0  3.05 0 0  3.1 0 0  3.15 0 0  3.2 0 0  3.25 0 0  3.3 0 0  3.35 0 0  3.4 0 0  3.45 0 0  3.5 0 0  3.55 0 0  3.6 0 0  3.65 0 0  3.7 0 0  3.75 0 0  3.8 0 0  3.85 0 0  3.9 0 0  3.95 0 0  4 0 0  4.05 0 0  4.1 0 0  4.15 0 0  4.2 0 0  4.25 0 0  4.3 0 0  4.35 0 0  4.4 0 0  4.45 0 0  4.5 0 0  4.55 0 0  4.6 0 0  4.65 0 0  4.7 0 0  4.75 0 0  4.8 0 0  4.85 0 0  4.9 0 0  4.95 0 0  5 0 0  0 0.03 0  0.05 0.03 0  0.1 0.03 0  0.15 0.03 0  0.2 0.03 0  0.25 0.03 0  0.3 0.03 0  0.35 0.03 0  0.4 0.03 0  0.45 0.03 0  0.5 0.03 0  0.55 0.03 0  0.6 0.03 0  0.65 0.03 0  0.7 0.03 0  0.75 0.03 0  0.8 0.03 0  0.85 0.03 0  0.9 0.03 0  0.95 0.03 0  1 0.03 0  1.05 0.03 0  1.1 0.03 0  1.15 0.03 0  1.2 0.03 0  1.25 0.03 0  1.3 0.03 0  1.35 0.03 0  1.4 0.03 0  1.45 0.03 0  1.5 0.03 0  1.55 0.03 0  1.6 0.03 0  1.65 0.03 0  1.7 0.03 0  1.75 0.03 0  1.8 0.03 0  1.85 0.03 0  1.9 0.03 0  1.95 0.03 0  2 0.03 0  2.05 0.03 0  2.1 0.03 0  2.15 0.03 0  2.2 0.03 0  2.25 0.03 0  2.3 0.03 0  2.35 0.03 0  2.4 0.03 0  2.45 0.03 0  2.5 0.03 0  2.55 0.03 0  2.6 0.03 0  2.65 0.03 0  2.7 0.03 0  2.75 0.03 0  2.8 0.03 0  2.85 0.03 0  2.9 0.03 0  2.95 0.03 0  3 0.03 0  3.05 0.03 0  3.1 0.03 0  3.15 0.03 0  3.2 0.03 0  3.25 0.03 0  3.3 0.03 0  3.35 0.03 0  3.4 0.03 0  3.45 0.03 0  3.5 0.03 0  3.55 0.03 0  3.6 0.03 0  3.65 0.03 0  3.7 0.03 0  3.75 0.03 0  3.8 0.03 0  3.85 0.03 0  3.9 0.03 0  3.95 0.03 0  4 0.03 0  4.05 0.03 0  4.1 0.03 0  4.15 0.03 0  4.2 0.03 0  4.25 0.03 0  4.3 0.03 0  4.35 0.03 0  4.4 0.03 0  4.45 0.03 0  4.5 0.03 0  4.55 0.03 0  4.6 0.03 0  4.65 0.03 0  4.7 0.03 0  4.75 0.03 0  4.8 0.03 0  4.85 0.03 0  4.9 0.03 0  4.95 0.03 0  5 0.03 0  0 0.06 0  0.05 0.06 0  0.1 0.06 0  0.15 0.06 0  0.2 0.06 0  0.25 0.06 0  0.3 0.06 0  0.35 0.06 0  0.4 0.06 0  0.45 0.06 0  0.5 0.06 0  0.55 0.06 0  0.6 0.06 0  0.65 0.06 0  0.7 0.06 0  0.75 0.06 0  0.8 0.06 0  0.85 0.06 0  0.9 0.06 0  0.95 0.06 0  1 0.06 0  1.05 0.06 0  1.1 0.06 0  1.15 0.06 0  1.2 0.06 0  1.25 0.06 0  1.3 0.06 0  1.35 0.06 0  1.4 0.06 0  1.45 0.06 0  1.5 0.06 0  1.55 0.06 0  1.6 0.06 0  1.65 0.06 0  1.7 0.06 0  1.75 0.06 0  1.8 0.06 0  1.85 0.06 0  1.9 0.06 0  1.95 0.06 0  2 0.06 0  2.05 0.06 0  2.1 0.06 0  2.15 0.06 0  2.2 0.06 0  2.25 0.06 0  2.3 0.06 0  2.35 0.06 0  2.4 0.06 0  2.45 0.06 0  2.5 0.06 0  2.55 0.06 0  2.6 0.06 0  2.65 0.06 0  2.7 0.06 0  2.75 0.06 0  2.8 0.06 0  2.85 0.06 0  2.9 0.06 0  2.95 0.06 0  3 0.06 0  3.05 0.06 0  3.1 0.06 0  3.15 0.06 0  3.2 0.06 0  3.25 0.06 0  3.3 0.06 0  3.35 0.06 0  3.4 0.06 0  3.45 0.06 0  3.5 0.06 0  3.55 0.06 0  3.6 0.06 0  3.65 0.06 0  3.7 0.06 0  3.75 0.06 0  3.8 0.06 0  3.85 0.06 0  3.9 0.06 0  3.95 0.06 0  4 0.06 0  4.05 0.06 0  4.1 0.06 0  4.15 0.06 0  4.2 0.06 0  4.25 0.06 0  4.3 0.06 0  4.35 0.06 0  4.4 0.06 0  4.45 0.06 0  4.5 0.06 0  4.55 0.06 0  4.6 0.06 0  4.65 0.06 0  4.7 0.06 0  4.75 0.06 0  4.8 0.06 0  4.85 0.06 0  4.9 0.06 0  4.95 0.06 0  5 0.06 0  0 0.09 0  0.05 0.09 0  0.1 0.09 0  0.15 0.09 0  0.2 0.09 0  0.25 0.09 0  0.3 0.09 0  0.35 0.09 0  0.4 0.09 0  0.45 0.09 0  0.5 0.09 0  0.55 0.09 0  0.6 0.09 0  0.65 0.09 0  0.7 0.09 0  0.75 0.09 0  0.8 0.09 0  0.85 0.09 0  0.9 0.09 0  0.95 0.09 0  1 0.09 0  1.05 0.09 0  1.1 0.09 0  1.15 0.09 0  1.2 0.09 0  1.25 0.09 0  1.3 0.09 0  1.35 0.09 0  1.4 0.09 0  1.45 0.09 0  1.5 0.09 0  1.55 0.09 0  1.6 0.09 0  1.65 0.09 0  1.7 0.09 0  1.75 0.09 0  1.8 0.09 0  1.85 0.09 0  1.9 0.09 0  1.95 0.09 0  2 0.09 0  2.05 0.09 0  2.1 0.09 0  2.15 0.09 0  2.2 0.09 0  2.25 0.09 0  2.3 0.09 0  2.35 0.09 0  2.4 0.09 0  2.45 0.09 0  2.5 0.09 0  2.55 0.09 0  2.6 0.09 0  2.65 0.09 0  2.7 0.09 0  2.75 0.09 0  2.8 0.09 0  2.85 0.09 0  2.9 0.09 0  2.95 0.09 0  3 0.09 0  3.05 0.09 0  3.1 0.09 0  3.15 0.09 0  3.2 0.09 0  3.25 0.09 0  3.3 0.09 0  3.35 0.09 0  3.4 0.09 0  3.45 0.09 0  3.5 0.09 0  3.55 0.09 0  3.6 0.09 0  3.65 0.09 0  3.7 0.09 0  3.75 0.09 0  3.8 0.09 0  3.85 0.09 0  3.9 0.09 0  3.95 0.09 0  4 0.09 0  4.05 0.09 0  4.1 0.09 0  4.15 0.09 0  4.2 0.09 0  4.25 0.09 0  4.3 0.09 0  4.35 0.09 0  4.4 0.09 0  4.45 0.09 0  4.5 0.09 0  4.55 0.09 0  4.6 0.09 0  4.65 0.09 0  4.7 0.09 0  4.75 0.09 0  4.8 0.09 0  4.85 0.09 0  4.9 0.09 0  4.95 0.09 0  5 0.09 0  0 0.12 0  0.05 0.12 0  0.1 0.12 0  0.15 0.12 0  0.2 0.12 0  0.25 0.12 0  0.3 0.12 0  0.35 0.12 0  0.4 0.12 0  0.45 0.12 0  0.5 0.12 0  0.55 0.12 0  0.6 0.12 0  0.65 0.12 0  0.7 0.12 0  0.75 0.12 0  0.8 0.12 0  0.85 0.12 0  0.9 0.12 0  0.95 0.12 0  1 0.12 0  1.05 0.12 0  1.1 0.12 0  1.15 0.12 0  1.2 0.12 0  1.25 0.12 0  1.3 0.12 0  1.35 0.12 0  1.4 0.12 0  1.45 0.12 0  1.5 0.12 0  1.55 0.12 0  1.6 0.12 0  1.65 0.12 0  1.7 0.12 0  1.75 0.12 0  1.8 0.12 0  1.85 0.12 0  1.9 0.12 0  1.95 0.12 0  2 0.12 0  2.05 0.12 0  2.1 0.12 0  2.15 0.12 0  2.2 0.12 0  2.25 0.12 0  2.3 0.12 0  2.35 0.12 0  2.4 0.12 0  2.45 0.12 0  2.5 0.12 0  2.55 0.12 0  2.6 0.12 0  2.65 0.12 0  2.7 0.12 0  2.75 0.12 0  2.8 0.12 0  2.85 0.12 0  2.9 0.12 0  2.95 0.12 0  3 0.12 0  3.05 0.12 0  3.1 0.12 0  3.15 0.12 0  3.2 0.12 0  3.25 0.12 0  3.3 0.12 0  3.35 0.12 0  3.4 0.12 0  3.45 0.12 0  3.5 0.12 0  3.55 0.12 0  3.6 0.12 0  3.65 0.12 0  3.7 0.12 0  3.75 0.12 0  3.8 0.12 0  3.85 0.12 0  3.9 0.12 0  3.95 0.12 0  4 0.12 0  4.05 0.12 0  4.1 0.12 0  4.15 0.12 0  4.2 0.12 0  4.25 0.12 0  4.3 0.12 0  4.35 0.12 0  4.4 0.12 0  4.45 0.12 0  4.5 0.12 0  4.55 0.12 0  4.6 0.12 0  4.65 0.12 0  4.7 0.12 0  4.75 0.12 0  4.8 0.12 0  4.85 0.12 0  4.9 0.12 0  4.95 0.12 0  5 0.12 0  0 0.15 0  0.05 0.15 0  0.1 0.15 0  0.15 0.15 0  0.2 0.15 0  0.25 0.15 0  0.3 0.15 0  0.35 0.15 0  0.4 0.15 0  0.45 0.15 0  0.5 0.15 0  0.55 0.15 0  0.6 0.15 0  0.65 0.15 0  0.7 0.15 0  0.75 0.15 0  0.8 0.15 0  0.85 0.15 0  0.9 0.15 0  0.95 0.15 0  1 0.15 0  1.05 0.15 0  1.1 0.15 0  1.15 0.15 0  1.2 0.15 0  1.25 0.15 0  1.3 0.15 0  1.35 0.15 0  1.4 0.15 0  1.45 0.15 0  1.5 0.15 0  1.55 0.15 0  1.6 0.15 0  1.65 0.15 0  1.7 0.15 0  1.75 0.15 0  1.8 0.15 0  1.85 0.15 0  1.9 0.15 0  1.95 0.15 0  2 0.15 0  2.05 0.15 0  2.1 0.15 0  2.15 0.15 0  2.2 0.15 0  2.25 0.15 0  2.3 0.15 0  2.35 0.15 0  2.4 0.15 0  2.45 0.15 0  2.5 0.15 0  2.55 0.15 0  2.6 0.15 0  2.65 0.15 0  2.7 0.15 0  2.75 0.15 0  2.8 0.15 0  2.85 0.15 0  2.9 0.15 0  2.95 0.15 0  3 0.15 0  3.05 0.15 0  3.1 0.15 0  3.15 0.15 0  3.2 0.15 0  3.25 0.15 0  3.3 0.15 0  3.35 0.15 0  3.4 0.15 0  3.45 0.15 0  3.5 0.15 0  3.55 0.15 0  3.6 0.15 0  3.65 0.15 0  3.7 0.15 0  3.75 0.15 0  3.8 0.15 0  3.85 0.15 0  3.9 0.15 0  3.95 0.15 0  4 0.15 0  4.05 0.15 0  4.1 0.15 0  4.15 0.15 0  4.2 0.15 0  4.25 0.15 0  4.3 0.15 0  4.35 0.15 0  4.4 0.15 0  4.45 0.15 0  4.5 0.15 0  4.55 0.15 0  4.6 0.15 0  4.65 0.15 0  4.7 0.15 0  4.75 0.15 0  4.8 0.15 0  4.85 0.15 0  4.9 0.15 0  4.95 0.15 0  5 0.15 0  0 0.18 0  0.05 0.18 0  0.1 0.18 0  0.15 0.18 0  0.2 0.18 0  0.25 0.18 0  0.3 0.18 0  0.35 0.18 0  0.4 0.18 0  0.45 0.18 0  0.5 0.18 0  0.55 0.18 0  0.6 0.18 0  0.65 0.18 0  0.7 0.18 0  0.75 0.18 0  0.8 0.18 0  0.85 0.18 0  0.9 0.18 0  0.95 0.18 0  1 0.18 0  1.05 0.18 0  1.1 0.18 0  1.15 0.18 0  1.2 0.18 0  1.25 0.18 0  1.3 0.18 0  1.35 0.18 0  1.4 0.18 0  1.45 0.18 0  1.5 0.18 0  1.55 0.18 0  1.6 0.18 0  1.65 0.18 0  1.7 0.18 0  1.75 0.18 0  1.8 0.18 0  1.85 0.18 0  1.9 0.18 0  1.95 0.18 0  2 0.18 0  2.05 0.18 0  2.1 0.18 0  2.15 0.18 0  2.2 0.18 0  2.25 0.18 0  2.3 0.18 0  2.35 0.18 0  2.4 0.18 0  2.45 0.18 0  2.5 0.18 0  2.55 0.18 0  2.6 0.18 0  2.65 0.18 0  2.7 0.18 0  2.75 0.18 0  2.8 0.18 0  2.85 0.18 0  2.9 0.18 0  2.95 0.18 0  3 0.18 0  3.05 0.18 0  3.1 0.18 0  3.15 0.18 0  3.2 0.18 0  3.25 0.18 0  3.3 0.18 0  3.35 0.18 0  3.4 0.18 0  3.45 0.18 0  3.5 0.18 0  3.55 0.18 0  3.6 0.18 0  3.65 0.18 0  3.7 0.18 0  3.75 0.18 0  3.8 0.18 0  3.85 0.18 0  3.9 0.18 0  3.95 0.18 0  4 0.18 0  4.05 0.18 0  4.1 0.18 0  4.15 0.18 0  4.2 0.18 0  4.25 0.18 0  4.3 0.18 0  4.35 0.18 0  4.4 0.18 0  4.45 0.18 0  4.5 0.18 0  4.55 0.18 0  4.6 0.18 0  4.65 0.18 0  4.7 0.18 0  4.75 0.18 0  4.8 0.18 0  4.85 0.18 0  4.9 0.18 0  4.95 0.18 0  5 0.18 0  0 0.21 0  0.05 0.21 0  0.1 0.21 0  0.15 0.21 0  0.2 0.21 0  0.25 0.21 0  0.3 0.21 0  0.35 0.21 0  0.4 0.21 0  0.45 0.21 0  0.5 0.21 0  0.55 0.21 0  0.6 0.21 0  0.65 0.21 0  0.7 0.21 0  0.75 0.21 0  0.8 0.21 0  0.85 0.21 0  0.9 0.21 0  0.95 0.21 0  1 0.21 0  1.05 0.21 0  1.1 0.21 0  1.15 0.21 0  1.2 0.21 0  1.25 0.21 0  1.3 0.21 0  1.35 0.21 0  1.4 0.21 0  1.45 0.21 0  1.5 0.21 0  1.55 0.21 0  1.6 0.21 0  1.65 0.21 0  1.7 0.21 0  1.75 0.21 0  1.8 0.21 0  1.85 0.21 0  1.9 0.21 0  1.95 0.21 0  2 0.21 0  2.05 0.21 0  2.1 0.21 0  2.15 0.21 0  2.2 0.21 0  2.25 0.21 0  2.3 0.21 0  2.35 0.21 0  2.4 0.21 0  2.45 0.21 0  2.5 0.21 0  2.55 0.21 0  2.6 0.21 0  2.65 0.21 0  2.7 0.21 0  2.75 0.21 0  2.8 0.21 0  2.85 0.21 0  2.9 0.21 0  2.95 0.21 0  3 0.21 0  3.05 0.21 0  3.1 0.21 0  3.15 0.21 0  3.2 0.21 0  3.25 0.21 0  3.3 0.21 0  3.35 0.21 0  3.4 0.21 0  3.45 0.21 0  3.5 0.21 0  3.55 0.21 0  3.6 0.21 0  3.65 0.21 0  3.7 0.21 0  3.75 0.21 0  3.8 0.21 0  3.85 0.21 0  3.9 0.21 0  3.95 0.21 0  4 0.21 0  4.05 0.21 0  4.1 0.21 0  4.15 0.21 0  4.2 0.21 0  4.25 0.21 0  4.3 0.21 0  4.35 0.21 0  4.4 0.21 0  4.45 0.21 0  4.5 0.21 0  4.55 0.21 0  4.6 0.21 0  4.65 0.21 0  4.7 0.21 0  4.75 0.21 0  4.8 0.21 0  4.85 0.21 0  4.9 0.21 0  4.95 0.21 0  5 0.21 0  0 0.24 0  0.05 0.24 0  0.1 0.24 0  0.15 0.24 0  0.2 0.24 0  0.25 0.24 0  0.3 0.24 0
[...]
<PointData  Scalars="f_98"> 
<DataArray  type="Float64"  Name="f_98"  format="ascii">-4.1514126992504860e-19  -4.2025920247885671e-05  -6.3459934568442196e-05  -7.7033483456035275e-05  -8.6788685102909404e-05  -9.4564184553970194e-05  -1.0130438430299418e-04  -1.0752448366964395e-04  -1.1350196274323154e-04  -1.1938068226901393e-04  -1.2523073337923586e-04  -1.3108251164818278e-04  -1.3694554525725886e-04  -1.4281858169205288e-04  -1.4869486333789862e-04  -1.5456485369388207e-04  -1.6041765105542685e-04  -1.6624173654731535e-04  -1.7202538356610042e-04  -1.7775689094720923e-04  -1.8342472057835131e-04  -1.8901758068297611e-04  -1.9452447687011827e-04  -1.9993474350178163e-04  -2.0523806287996431e-04  -2.1042447688742754e-04  -2.1548439398398687e-04  -2.2040859337377401e-04  -2.2518822746877659e-04  -2.2981482333706205e-04  -2.3428028355118081e-04  -2.3857688668442817e-04  -2.4269728760114101e-04  -2.4663451762673821e-04  -2.5038198464750062e-04  -2.5393347316926004e-04  -2.5728314435198021e-04  -2.6042553603015912e-04  -2.6335556272488297e-04  -2.6606851565094978e-04  -2.6856006272108271e-04  -2.7082624854842576e-04  -2.7286349444800081e-04  -2.7466859843758485e-04  -2.7623873523822490e-04  -2.7757145627452549e-04  -2.7866468967484932e-04  -2.7951674027139849e-04  -2.8012628960028999e-04  -2.8049239590159007e-04  -2.8061449411932911e-04  -2.8049239590152150e-04  -2.8012628960015479e-04  -2.7951674027119672e-04  -2.7866468967458076e-04  -2.7757145627419047e-04  -2.7623873523782439e-04  -2.7466859843712363e-04  -2.7286349444747681e-04  -2.7082624854784365e-04  -2.6856006272044656e-04  -2.6606851565026321e-04  -2.6335556272415227e-04  -2.6042553602938803e-04  -2.5728314435117400e-04  -2.5393347316842271e-04  -2.5038198464664150e-04  -2.4663451762586532e-04  -2.4269728760026082e-04  -2.3857688668354446e-04  -2.3428028355029865e-04  -2.2981482333619036e-04  -2.2518822746792259e-04  -2.2040859337294253e-04  -2.1548439398318136e-04  -2.1042447688665131e-04  -2.0523806287922386e-04  -1.9993474350108204e-04  -1.9452447686946157e-04  -1.8901758068236383e-04  -1.8342472057778354e-04  -1.7775689094668947e-04  -1.7202538356562693e-04  -1.6624173654688831e-04  -1.6041765105504334e-04  -1.5456485369354090e-04  -1.4869486333759959e-04  -1.4281858169179319e-04  -1.3694554525703651e-04  -1.3108251164799459e-04  -1.2523073337907843e-04  -1.1938068226888559e-04  -1.1350196274312907e-04  -1.0752448366956570e-04  -1.0130438430293547e-04  -9.4564184553928439e-05  -8.6788685102883058e-05  -7.7033483456019581e-05  -6.3459934568434092e-05  -4.2025920247882018e-05  -2.9083157184702940e-19  -2.7233952316027942e-19  -2.3450416263604069e-05  -4.2990383393913581e-05  -5.6117665509524501e-05  -6.5694409164800753e-05  -7.3369957775952117e-05  -8.0050909474168171e-05  -8.6237031535100670e-05  -9.2196602460517004e-05  -9.8067370314372613e-05  -1.0391541039795284e-04  -1.0976858567160436e-04  -1.1563489407439994e-04  -1.2151219178617804e-04  -1.2739321638102855e-04  -1.3326815064312962e-04  -1.3912593804638575e-04  -1.4495497418602783e-04  -1.5074348472685013e-04  -1.5647974143964341e-04  -1.6215219058760694e-04  -1.6774953122413114e-04  -1.7326076350853499e-04  -1.7867521853945343e-04  -1.8398257665894083e-04  -1.8917287857336110e-04  -1.9423653203848385e-04  -1.9916431583879348e-04  -2.0394738213720445e-04  -2.0857725785451863e-04  -2.1304584547647920e-04  -2.1734542352530985e-04  -2.2146864683533578e-04  -2.2540854671434144e-04  -2.2915853103824330e-04  -2.3271238430677614e-04  -2.3606426767631137e-04  -2.3920871897923095e-04  -2.4214065273537376e-04  -2.4485536015880093e-04  -2.4734850916179968e-04  -2.4961614435725730e-04  -2.5165468706004517e-04  -2.5346093528785221e-04  -2.5503206376166682e-04  -2.5636562390606797e-04  -2.5745954384939860e-04  -2.5831212842384829e-04  -2.5892205916552976e-04  -2.5928839431450389e-04  -2.5941056881480197e-04  -2.5928839431443683e-04  -2.5892205916539364e-04  -2.5831212842364549e-04  -2.5745954384912933e-04  -2.5636562390573278e-04  -2.5503206376126643e-04  -2.5346093528738834e-04  -2.5165468705952134e-04  -2.4961614435667492e-04  -2.4734850916116163e-04  -2.4485536015811263e-04  -2.4214065273464130e-04  -2.3920871897845908e-04  -2.3606426767550329e-04  -2.3271238430593586e-04  -2.2915853103738218e-04  -2.2540854671346670e-04  -2.2146864683445335e-04  -2.1734542352442354e-04  -2.1304584547559481e-04  -2.0857725785364503e-04  -2.0394738213634807e-04  -1.9916431583795973e-04  -1.9423653203767664e-04  -1.8917287857258327e-04  -1.8398257665819872e-04  -1.7867521853875200e-04  -1.7326076350787750e-04  -1.6774953122351843e-04  -1.6215219058703930e-04  -1.5647974143912272e-04  -1.5074348472637699e-04  -1.4495497418560166e-04  -1.3912593804600278e-04  -1.3326815064278893e-04  -1.2739321638073007e-04  -1.2151219178591989e-04  -1.1563489407417857e-04  -1.0976858567141657e-04  -1.0391541039779669e-04  -9.8067370314244839e-05  -9.2196602460415807e-05  -8.6237031535023109e-05  -8.0050909474110613e-05  -7.3369957775911690e-05  -6.5694409164775546e-05  -5.6117665509510136e-05  -4.2990383393906758e-05  -2.3450416263601765e-05  -2.0757063496252285e-19  -1.3327786061047192e-19  -1.2461615528003208e-05  -2.7124656581899045e-05  -3.8546883839071294e-05  -4.7398920507989666e-05  -5.4716053810365563e-05  -6.1208105606764938e-05  -6.7292361948788546e-05  -7.3196964108891837e-05  -7.9038604927739802e-05  -8.4871929880921037e-05  -9.0718493357251233e-05  -9.6582773366155286e-05  -1.0246064169043380e-04  -1.0834370440872101e-04  -1.1422149141645625e-04  -1.2008256523735540e-04  -1.2591509713734379e-04  -1.3170717982041055e-04  -1.3744700596001136e-04  -1.4312297470665743e-04  -1.4872375706861528e-04  -1.5423833653957158e-04  -1.5965603433715960e-04  -1.6496652495853758e-04  -1.7015984565960495e-04  -1.7522640216229661e-04  -1.8015697205343295e-04  -1.8494270679097146e-04  -1.8957513288076603e-04  -1.9404615256423842e-04  -1.9834804421968539e-04  -2.0247346259660143e-04  -2.0641543895274389e-04  -2.1016738113451667e-04  -2.1372307362423827e-04  -2.1707667756800295e-04  -2.2022273079212466e-04  -2.2315614781286217e-04  -2.2587221984216225e-04  -2.2836661479106927e-04  -2.3063537727173239e-04  -2.3267492859858777e-04  -2.3448206678906996e-04  -2.3605396656401688e-04  -2.3738817934791900e-04  -2.3848263326906347e-04  -2.3933563315961312e-04  -2.3994586055566127e-04  -2.4031237369725878e-04  -2.4043460752843198e-04  -2.4031237369719050e-04  -2.3994586055552547e-04  -2.3933563315941034e-04  -2.3848263326879378e-04  -2.3738817934758268e-04  -2.3605396656361610e-04  -2.3448206678860524e-04  -2.3267492859806253e-04  -2.3063537727114765e-04  -2.2836661479043013e-04  -2.2587221984147324e-04  -2.2315614781212749e-04  -2.2022273079135081e-04  -2.1707667756719245e-04  -2.1372307362339655e-04  -2.1016738113365364e-04  -2.0641543895186649e-04  -2.0247346259571718e-04  -1.9834804421879781e-04  -1.9404615256335235e-04  -1.8957513287989127e-04  -1.8494270679011337e-04  -1.8015697205259765e-04  -1.7522640216148698e-04  -1.7015984565882622e-04  -1.6496652495779485e-04  -1.5965603433645744e-04  -1.5423833653891320e-04  -1.4872375706800171e-04  -1.4312297470608920e-04  -1.3744700595949113e-04  -1.3170717981993710e-04  -1.2591509713691729e-04  -1.2008256523697213e-04  -1.1422149141611604e-04  -1.0834370440842284e-04  -1.0246064169017566e-04  -9.6582773365934489e-05  -9.0718493357064194e-05  -8.4871929880765061e-05  -7.9038604927612801e-05  -7.3196964108791589e-05  -6.7292361948711554e-05  -6.1208105606708180e-05  -5.4716053810326003e-05  -4.7398920507965190e-05  -3.8546883839057714e-05  -2.7124656581893021e-05  -1.2461615528001705e-05  -9.8435957019649180e-20  -5.7520539363821292e-20  -5.7614530879909214e-06  -1.5273210195617423e-05  -2.4211134421518681e-05  -3.1866901184624283e-05  -3.8581327527185774e-05  -4.4759984346800240e-05  -5.0678610388607549e-05  -5.6494844903046552e-05  -6.2289104280649477e-05  -6.8097107713441718e-05  -7.3930439468420942e-05  -7.9788252484275555e-05  -8.5663514520283322e-05  -9.1546205634147318e-05  -9.7424919926067391e-05  -1.0328766847825156e-04  -1.0912229217323846e-04  -1.1491668402509875e-04  -1.2065891574975221e-04  -1.2633731341316632e-04  -1.3194050409195743e-04  -1.3745744503504027e-04  -1.4287744187574402e-04  -1.4819015990447451e-04  -1.5338563095873911e-04  -1.5845425757918130e-04  -1.6338681548671506e-04  -1.6817445504481023e-04  -1.7280870211677012e-04  -1.7728145856630106e-04  -1.8158500254934865e-04  -1.8571198868433928e-04  -1.8965544815169259e-04  -1.9340878875214967e-04  -1.9696579494105491e-04  -2.0032062784857018e-04  -2.0346782529159709e-04  -2.0640230178083571e-04  -2.0911934852495688e-04  -2.1161463343306663e-04  -2.1388420111617454e-04  -2.1592447288804148e-04  -2.1773224676570701e-04  -2.1930469746977285e-04  -2.2063937642459325e-04  -2.2173421175837292e-04  -2.2258750830322620e-04  -2.2319794759522178e-04  -2.2356458787439238e-04  -2.2368686408475740e-04  -2.2356458787432432e-04  -2.2319794759508520e-04  -2.2258750830302427e-04  -2.2173421175810241e-04  -2.2063937642425655e-04  -2.1930469746937184e-04  -2.1773224676524175e-04  -2.1592447288751627e-04  -2.1388420111558877e-04  -2.1161463343242709e-04  -2.0911934852426694e-04  -2.0640230178010035e-04  -2.0346782529082037e-04  -2.0032062784775741e-04  -1.9696579494021311e-04  -1.9340878875128515e-04  -1.8965544815081407e-04  -1.8571198868345279e-04  -1.8158500254845860e-04  -1.7728145856541410e-04  -1.7280870211589308e-04  -1.6817445504395016e-04  -1.6338681548587862e-04  -1.5845425757837062e-04  -1.5338563095795946e-04  -1.4819015990373059e-04  -1.4287744187504103e-04  -1.3745744503438137e-04  -1.3194050409134236e-04  -1.2633731341259782e-04  -1.2065891574923159e-04  -1.1491668402462429e-04  -1.0912229217281021e-04  -1.0328766847786778e-04  -9.7424919925727344e-05  -9.1546205633848959e-05  -8.5663514520024794e-05  -7.9788252484054378e-05  -7.3930439468234256e-05  -6.8097107713286189e-05  -6.2289104280523140e-05  -5.6494844902946588e-05  -5.0678610388531160e-05  -4.4759984346744011e-05  -3.8581327527146845e-05  -3.1866901184600146e-05  -2.4211134421505596e-05  -1.5273210195611934e-05  -5.7614530879899388e-06  -4.1923752918187833e-20  -4.6930597429046083e-21  -1.2744761445361878e-06  -6.4835601611491386e-06  -1.2760926365802132e-05  -1.8959480910171626e-05  -2.4901392862484441e-05  -3.0673030116396792e-05  -3.6376973622578568e-05  -4.2079247737048325e-05  -4.7812323691901688e-05  -5.3587048704166880e-05  -5.9402137493826774e-05  -6.5250027058188061e-05  -7.1120103724693517e-05  -7.7000374764727702e-05  -8.2878307302894450e-05  -8.8741247483719264e-05  -9.4576634878224127e-05  -1.0037211746893349e-04  -1.0611561701143721e-04  -1.1179536815666895e-04  -1.1739994266325960e-04  -1.2291826458983853e-04  -1.2833961981803803e-04  -1.3365366196454578e-04  -1.3885041600249288e-04  -1.4392028044891782e-04  -1.4885402866950391e-04  -1.5364280964893110e-04  -1.5827814844240057e-04  -1.6275194643915861e-04  -1.6705648151604639e-04  -1.7118440812701540e-04  -1.7512875735542402e-04  -1.7888293694468002e-04  -1.8244073131624887e-04  -1.8579630158026798e-04  -1.8894418554180818e-04  -1.9187929770458174e-04  -1.9459692927313268e-04  -1.9709274815413384e-04  -1.9936279895715561e-04  -2.0140350299511641e-04  -2.0321165828455137e-04  -2.0478443954577053e-04  -2.0611939820295444e-04  -2.0721446238420525e-04  -2.0806793692157733e-04  -2.0867850335110492e-04  -2.0904521991280136e-04  -2.0916752155067657e-04  -2.0904521991273319e-04  -2.0867850335096828e-04  -2.0806793692137464e-04  -2.0721446238393377e-04  -2.0611939820261720e-04  -2.0478443954536908e-04  -2.0321165828408524e-04  -2.0140350299458892e-04  -1.9936279895656960e-04  -1.9709274815349337e-04  -1.9459692927244237e-04  -1.9187929770384475e-04  -1.8894418554103035e-04  -1.8579630157945442e-04  -1.8244073131540588e-04  -1.7888293694381501e-04  -1.7512875735454362e-04  -1.7118440812612763e-04  -1.6705648151515634e-04  -1.6275194643827079e-04  -1.5827814844152297e-04  -1.5364280964807060e-04  -1.4885402866866631e-04  -1.4392028044810614e-04  -1.3885041600171212e-04  -1.3365366196380098e-04  -1.2833961981733403e-04  -1.2291826458917822e-04  -1.1739994266264386e-04  -1.1179536815610008e-04  -1.0611561701091623e-04  -1.0037211746845852e-04  -9.4576634877795515e-05  -8.8741247483335050e-05  -8.2878307302554024e-05  -7.7000374764429262e-05  -7.1120103724434922e-05  -6.5250027057966762e-05  -5.9402137493639973e-05  -5.3587048704011121e-05  -4.7812323691775283e-05  -4.2079247736948497e-05  -3.6376973622502369e-05  -3.0673030116340800e-05  -2.4901392862445701e-05  -1.8959480910147648e-05  -1.2760926365789216e-05  -6.4835601611439243e-06  -1.2744761445354416e-06  -3.5835482243791564e-21  3.2222885385488356e-20  1.8910022592714652e-06  5.7759135457636610e-08  -3.7632034433049989e-06  -8.4705454322658812e-06  -1.3577496422362968e-05  -1.8898330830921171e-05  -2.4362246777524751e-05  -2.9936609832479571e-05  -3.5600649949689342e-05  -4.1337330425710950e-05  -4.7130965704598385e-05  -5.2966537403337096e-05  -5.8829495168795699e-05  -6.4705695890090409e-05  -7.0581383875713396e-05  -7.6443183989414348e-05  -8.2278099186349212e-05  -8.8073509619838363e-05  -9.3817172320169025e-05  -9.9497221081081921e-05  -1.0510216642043570e-04  -1.1062089556682039e-04  -1.1604267245506892e-04  -1.2135713772475628e-04  -1.2655430871970756e-04  -1.3162457948783085e-04  -1.3655872078106553e-04  -1.4134788005536268e-04  -1.4598358147067543e-04  -1.5045772589096019e-04  -1.5476259088417608e-04  -1.5889083072228587e-04  -1.6283547638125127e-04  -1.6658993554103640e-04  -1.7014799258560862e-04  -1.7350380860293465e-04  -1.7665192138498553e-04  -1.7958724542773379e-04  -1.8230507193115432e-04  -1.8480106879922308e-04  -1.8707128063991967e-04  -1.8911212876522181e-04  -1.9092041119111479e-04  -1.9249330263758162e-04  -1.9382835452860992e-04  -1.9492349499218673e-04  -1.9577702886030537e-04  -1.9638763766895701e-04  -1.9675437965813560e-04  -1.9687668977183960e-04  -1.9675437965806775e-04  -1.9638763766882030e-04  -1.9577702886010279e-04  -1.9492349499191674e-04  -1.9382835452827214e-04  -1.9249330263717968e-04  -1.9092041119064888e-04  -1.8911212876469451e-04  -1.8707128063933279e-04  -1.8480106879858256e-04  -1.8230507193046436e-04  -1.7958724542699656e-04  -1.7665192138420683e-04  -1.7350380860212025e-04  -1.7014799258476576e-04  -1.6658993554017151e-04  -1.6283547638037100e-04  -1.5889083072139751e-04  -1.5476259088328535e-04  -1.5045772589007201e-04  -1.4598358146979766e-04  -1.4134788005450114e-04  -1.3655872078022687e-04  -1.3162457948701824e-04  -1.2655430871892604e-04  -1.2135713772401145e-04  -1.1604267245436466e-04  -1.1062089556615970e-04  -1.0510216641981919e-04  -9.9497221080512471e-05  -9.3817172319647361e-05  -8.8073509619362886e-05  -8.2278099185919407e-05  -7.6443183989029415e-05  -7.0581383875372483e-05  -6.4705695889791441e-05  -5.8829495168536635e-05  -5.2966537403115478e-05  -4.7130965704411272e-05  -4.1337330425555150e-05  -3.5600649949562708e-05  -2.9936609832379693e-05  -2.4362246777448284e-05  -1.8898330830865210e-05  -1.3577496422324364e-05  -8.4705454322416950e-06  -3.7632034432919787e-06  5.7759135462865205e-08  1.8910022592721744e-06  2.3741847191037883e-20  5.7340973914194216e-20  4.1618065984931842e-06  4.9305036465618509e-06  3.1808906943583354e-06  -1.7928593917186230e-07  -4.4966983813723917e-06  -9.3792000889896456e-06  -1.4605669457528816e-05  -2.0051872494607034e-05  -2.5645835847998819e-05  -3.1343218143790373e-05  -3.7114101907381572e-05  -4.2936065144908948e-05  -4.8790637923667543e-05  -5.4661532747113010e-05  -6.0533773278263814e-05  -6.6393263889901778e-05  -7.2226571205325101e-05  -7.8020807648805787e-05  -8.3763565559922696e-05  -8.9442877886957060e-05  -9.5047193910921432e-05  -1.0056536403167317e-04  -1.0598663023767548e-04  -1.1130062019153540e-04  -1.1649734360781780e-04  -1.2156719006531991e-04  -1.2650092770224089e-04  -1.3128970244580431e-04  -1.3592503756071713e-04  -1.4039883338564445e-04  -1.4470336717966546e-04  -1.4883129303275186e-04  -1.5277564181347177e-04  -1.5652982113834401e-04  -1.6008761535383527e-04  -1.6344318552574585e-04  -1.6659106943294461e-04  -1.6952618156366610e-04  -1.7224381311331413e-04  -1.7473963198316917e-04  -1.7700968277961759e-04  -1.7905038681370085e-04  -1.8085854210085053e-04  -1.8243132336072371e-04  -1.8376628201711442e-04  -1.8486134619789853e-04  -1.8571482073500114e-04  -1.8632538716437623e-04  -1.8669210372599705e-04  -1.8681440536384976e-04  -1.8669210372592907e-04  -1.8632538716424035e-04  -1.8571482073479804e-04  -1.8486134619762792e-04  -1.8376628201677707e-04  -1.8243132336032147e-04  -1.8085854210038454e-04  -1.7905038681317382e-04  -1.7700968277903088e-04  -1.7473963198252874e-04  -1.7224381311262396e-04  -1.6952618156292906e-04  -1.6659106943216602e-04  -1.6344318552493167e-04  -1.6008761535299295e-04  -1.5652982113747977e-04  -1.5277564181259196e-04  -1.4883129303186368e-04  -1.4470336717877435e-04  -1.4039883338475676e-04  -1.3592503755983958e-04  -1.3128970244494358e-04  -1.2650092770140204e-04  -1.2156719006450734e-04  -1.1649734360703647e-04  -1.1130062019079081e-04  -1.0598663023697108e-04  -1.0056536403101202e-04  -9.5047193910305036e-05  -8.9442877886387691e-05  -8.3763565559400382e-05  -7.8020807648330066e-05  -7.2226571204894849e-05  -6.6393263889516521e-05  -6.0533773277922311e-05  -5.4661532746813499e-05  -4.8790637923408026e-05  -4.2936065144686686e-05  -3.7114101907194005e-05  -3.1343218143634315e-05  -2.5645835847871889e-05  -2.0051872494506671e-05  -1.4605669457451993e-05  -9.3792000889333501e-06  -4.4966983813334621e-06  -1.7928593914731517e-07  3.1808906943717384e-06  4.9305036465673651e-06  4.1618065984940346e-06  4.2225720549780965e-20  7.7055428351008646e-20  5.7780464002324506e-06  8.5264000257965970e-06  8.3841521447242430e-06  6.1062350007905672e-06  2.4457825375668019e-06  -2.0610806110592471e-06  -7.0789985525751914e-06  -1.2410072199128913e-05  -1.7939614336909352e-05  -2.3599922651421741e-05  -2.9348657670404411e-05  -3.5156821316602748e-05  -4.1002408809702939e-05  -4.6867176195584541e-05  -5.2735026037188758e-05  -5.8591199890895999e-05  -6.4421863825816093e-05  -7.0213885500288871e-05  -7.5954707384990331e-05  -8.1632271044130723e-05  -8.7234970451100880e-05  -9.2751622818917757e-05  -9.8171450385493324e-05  -1.0348406914009519e-04  -1.0867948193304032e-04  -1.1374807431956398e-04  -1.1868061208264888e-04  -1.2346823977073509e-04  -1.2810247984042621e-04  -1.3257523215592966e-04  -1.3687877369722098e-04  -1.4100575838979620e-04  -1.4494921700516155e-04  -1.4870255710250341e-04  -1.5225956299440968e-04  -1.5561439572665657e-04  -1.5876159306628244e-04  -1.6169606949453146e-04  -1.6441311620268281e-04  -1.6690840108958346e-04  -1.6917796876018086e-04  -1.7121824052467212e-04  -1.7302601439798785e-04  -1.7459846509949064e-04  -1.7593314405280229e-04  -1.7702797938569525e-04  -1.7788127593003440e-04  -1.7849171522174042e-04  -1.7885835550076595e-04  -1.7898063171108814e-04  -1.7885835550069854e-04  -1.7849171522160511e-04  -1.7788127592983119e-04  -1.7702797938542414e-04  -1.7593314405246459e-04  -1.7459846509908857e-04  -1.7302601439752224e-04  -1.7121824052414487e-04  -1.6917796875959480e-04  -1.6690840108894280e-04  -1.6441311620199315e-04  -1.6169606949379445e-04  -1.5876159306550417e-04  -1.5561439572584371e-04  -1.5225956299356872e-04  -1.4870255710164058e-04  -1.4494921700428204e-04  -1.4100575838890854e-04  -1.3687877369633039e-04  -1.3257523215504260e-04  -1.2810247983954950e-04  -1.2346823976987480e-04  -1.1868061208181061e-04  -1.1374807431875194e-04  -1.0867948193225987e-04  -1.0348406913935131e-04  -9.8171450384789148e-05  -9.2751622818256475e-05  -8.7234970450484212e-05  -8.1632271043561409e-05  -7.5954707384468016e-05  -7.0213885499812879e-05  -6.4421863825385231e-05  -5.8591199890510233e-05  -5.2735026036846774e-05  -4.6867176195284542e-05  -4.1002408809443062e-05  -3.5156821316379938e-05  -2.9348657670216271e-05  -2.3599922