<?xml version="1.0"?>
<VTKFile type="UnstructuredGrid"  version="0.1"  >
<UnstructuredGrid>
<Piece  NumberOfPoints="2111" NumberOfCells="4000">
<Points>
<DataArray  type="Float64"  NumberOfComponents="3"  format="ascii">0 0 0  0.05 0 0  0.1 0 0  0.15 0 0  0.2 0 0  0.25 0 0  0.3 0 0  0.35 0 0  0.4 0 0  0.45 0 0  0.5 0 0  0.55 0 0  0.6 0 0  0.65 0 0  0.7 0 0  0.75 0 0  0.8 0 0  0.85 0 0  0.9 0 0  0.95 0 0  1 0 0  1.05 0 0  1.1 0 0  1.15 0 0  1.2 0 0  1.25 0 0  1.3 0 0  1.35 0 0  1.4 0 0  1.45 0 0  1.5 0 0  1.55 0 0  1.6 0 0  1.65 0 0  1.7 0 0  1.75 0 0  1.8 0 0  1.85 0 0  1.9 0 0  1.95 0 0  2 0 0  2.05 0 0  2.1 0 0  2.15 0 0  2.2 0 0  2.25 0 0  2.3 0 0  2.35 0 0  2.4 0 0  2.45 0 0  2.5 0 0  2.55 0 0  2.6 0 0  2.65 0 0  2.7 0 0  2.75 0 0  2.8 0 0  2.85 0 0  2.9 0 0  2.95 0 0  3 0 0  3.05 0 0  3.1 0 0  3.15 0 0  3.2 0 0  3.25 0 0  3.3 0 0  3.35 0 0  3.4 0 0  3.45 0 0  3.5 0 0  3.55 0 0  3.6 0 0  3.65 0 0  3.7 0 0  3.75 0 0  3.8 0 0  3.85 0 0  3.9 0 0  3.95 0 0  4 0 0  4.05 0 0  4.1 0 0  4.15 0 0  4.2 0 0  4.25 0 0  4.3 0 0  4.35 0 0  4.4 0 0  4.45 0 0  4.5 0 0  4.55 0 0  4.6 0 0  4.65 0 0  4.7 0 0  4.75 0 0  4.8 0 0  4.85 0 0  4.9 0 0  4.95 0 0  5 0 0  0 0.03 0  0.05 0.03 0  0.1 0.03 0  0.15 0.03 0  0.2 0.03 0  0.25 0.03 0  0.3 0.03 0  0.35 0.03 0  0.4 0.03 0  0.45 0.03 0  0.5 0.03 0  0.55 0.03 0  0.6 0.03 0  0.65 0.03 0  0.7 0.03 0  0.75 0.03 0  0.8 0.03 0  0.85 0.03 0  0.9 0.03 0  0.95 0.03 0  1 0.03 0  1.05 0.03 0  1.1 0.03 0  1.15 0.03 0  1.2 0.03 0  1.25 0.03 0  1.3 0.03 0  1.35 0.03 0  1.4 0.03 0  1.45 0.03 0  1.5 0.03 0  1.55 0.03 0  1.6 0.03 0  1.65 0.03 0  1.7 0.03 0  1.75 0.03 0  1.8 0.03 0  1.85 0.03 0  1.9 0.03 0  1.95 0.03 0  2 0.03 0  2.05 0.03 0  2.1 0.03 0  2.15 0.03 0  2.2 0.03 0  2.25 0.03 0  2.3 0.03 0  2.35 0.03 0  2.4 0.03 0  2.45 0.03 0  2.5 0.03 0  2.55 0.03 0  2.6 0.03 0  2.65 0.03 0  2.7 0.03 0  2.75 0.03 0  2.8 0.03 0  2.85 0.03 0  2.9 0.03 0  2.95 0.03 0  3 0.03 0  3.05 0.03 0  3.1 0.03 0  3.15 0.03 0  3.2 0.03 0  3.25 0.03 0  3.3 0.03 0  3.35 0.03 0  3.4 0.03 0  3.45 0.03 0  3.5 0.03 0  3.55 0.03 0  3.6 0.03 0  3.65 0.03 0  3.7 0.03 0  3.75 0.03 0  3.8 0.03 0  3.85 0.03 0  3.9 0.03 0  3.95 0.03 0  4 0.03 0  4.05 0.03 0  4.1 0.03 0  4.15 0.03 0  4.2 0.03 0  4.25 0.03 0  4.3 0.03 0  4.35 0.03 0  4.4 0.03 0  4.45 0.03 0  4.5 0.03 0  4.55 0.03 0  4.6 0.03 0  4.65 0.03 0  4.7 0.03 0  4.75 0.03 0  4.8 0.03 0  4.85 0.03 0  4.9 0.03 0  4.95 0.03 0  5 0.03 0  0 0.06 0  0.05 0.06 0  0.1 0.06 0  0.15 0.06 0  0.2 0.06 0  0.25 0.06 0  0.3 0.06 0  0.35 0.06 0  0.4 0.06 0  0.45 0.06 0  0.5 0.06 0  0.55 0.06 0  0.6 0.06 0  0.65 0.06 0  0.7 0.06 0  0.75 0.06 0  0.8 0.06 0  0.85 0.06 0  0.9 0.06 0  0.95 0.06 0  1 0.06 0  1.05 0.06 0  1.1 0.06 0  1.15 0.06 0  1.2 0.06 0  1.25 0.06 0  1.3 0.06 0  1.35 0.06 0  1.4 0.06 0  1.45 0.06 0  1.5 0.06 0  1.55 0.06 0  1.6 0.06 0  1.65 0.06 0  1.7 0.06 0  1.75 0.06 0  1.8 0.06 0  1.85 0.06 0  1.9 0.06 0  1.95 0.06 0  2 0.06 0  2.05 0.06 0  2.1 0.06 0  2.15 0.06 0  2.2 0.06 0  2.25 0.06 0  2.3 0.06 0  2.35 0.06 0  2.4 0.06 0  2.45 0.06 0  2.5 0.06 0  2.55 0.06 0  2.6 0.06 0  2.65 0.06 0  2.7 0.06 0  2.75 0.06 0  2.8 0.06 0  2.85 0.06 0  2.9 0.06 0  2.95 0.06 0  3 0.06 0  3.05 0.06 0  3.1 0.06 0  3.15 0.06 0  3.2 0.06 0  3.25 0.06 0  3.3 0.06 0  3.35 0.06 0  3.4 0.06 0  3.45 0.06 0  3.5 0.06 0  3.55 0.06 0  3.6 0.06 0  3.65 0.06 0  3.7 0.06 0  3.75 0.06 0  3.8 0.06 0  3.85 0.06 0  3.9 0.06 0  3.95 0.06 0  4 0.06 0  4.05 0.06 0  4.1 0.06 0  4.15 0.06 0  4.2 0.06 0  4.25 0.06 0  4.3 0.06 0  4.35 0.06 0  4.4 0.06 0  4.45 0.06 0  4.5 0.06 0  4.55 0.06 0  4.6 0.06 0  4.65 0.06 0  4.7 0.06 0  4.75 0.06 0  4.8 0.06 0  4.85 0.06 0  4.9 0.06 0  4.95 0.06 0  5 0.06 0  0 0.09 0  0.05 0.09 0  0.1 0.09 0  0.15 0.09 0  0.2 0.09 0  0.25 0.09 0  0.3 0.09 0  0.35 0.09 0  0.4 0.09 0  0.45 0.09 0  0.5 0.09 0  0.55 0.09 0  0.6 0.09 0  0.65 0.09 0  0.7 0.09 0  0.75 0.09 0  0.8 0.09 0  0.85 0.09 0  0.9 0.09 0  0.95 0.09 0  1 0.09 0  1.05 0.09 0  1.1 0.09 0  1.15 0.09 0  1.2 0.09 0  1.25 0.09 0  1.3 0.09 0  1.35 0.09 0  1.4 0.09 0  1.45 0.09 0  1.5 0.09 0  1.55 0.09 0  1.6 0.09 0  1.65 0.09 0  1.7 0.09 0  1.75 0.09 0  1.8 0.09 0  1.85 0.09 0  1.9 0.09 0  1.95 0.09 0  2 0.09 0  2.05 0.09 0  2.1 0.09 0  2.15 0.09 0  2.2 0.09 0  2.25 0.09 0  2.3 0.09 0  2.35 0.09 0  2.4 0.09 0  2.45 0.09 0  2.5 0.09 0  2.55 0.09 0  2.6 0.09 0  2.65 0.09 0  2.7 0.09 0  2.75 0.09 0  2.8 0.09 0  2.85 0.09 0  2.9 0.09 0  2.95 0.09 0  3 0.09 0  3.05 0.09 0  3.1 0.09 0  3.15 0.09 0  3.2 0.09 0  3.25 0.09 0  3.3 0.09 0  3.35 0.09 0  3.4 0.09 0  3.45 0.09 0  3.5 0.09 0  3.55 0.09 0  3.6 0.09 0  3.65 0.09 0  3.7 0.09 0  3.75 0.09 0  3.8 0.09 0  3.85 0.09 0  3.9 0.09 0  3.95 0.09 0  4 0.09 0  4.05 0.09 0  4.1 0.09 0  4.15 0.09 0  4.2 0.09 0  4.25 0.09 0  4.3 0.09 0  4.35 0.09 0  4.4 0.09 0  4.45 0.09 0  4.5 0.09 0  4.55 0.09 0  4.6 0.09 0  4.65 0.09 0  4.7 0.09 0  4.75 0.09 0  4.8 0.09 0  4.85 0.09 0  4.9 0.09 0  4.95 0.09 0  5 0.09 0  0 0.12 0  0.05 0.12 0  0.1 0.12 0  0.15 0.12 0  0.2 0.12 0  0.25 0.12 0  0.3 0.12 0  0.35 0.12 0  0.4 0.12 0  0.45 0.12 0  0.5 0.12 0  0.55 0.12 0  0.6 0.12 0  0.65 0.12 0  0.7 0.12 0  0.75 0.12 0  0.8 0.12 0  0.85 0.12 0  0.9 0.12 0  0.95 0.12 0  1 0.12 0  1.05 0.12 0  1.1 0.12 0  1.15 0.12 0  1.2 0.12 0  1.25 0.12 0  1.3 0.12 0  1.35 0.12 0  1.4 0.12 0  1.45 0.12 0  1.5 0.12 0  1.55 0.12 0  1.6 0.12 0  1.65 0.12 0  1.7 0.12 0  1.75 0.12 0  1.8 0.12 0  1.85 0.12 0  1.9 0.12 0  1.95 0.12 0  2 0.12 0  2.05 0.12 0  2.1 0.12 0  2.15 0.12 0  2.2 0.12 0  2.25 0.12 0  2.3 0.12 0  2.35 0.12 0  2.4 0.12 0  2.45 0.12 0  2.5 0.12 0  2.55 0.12 0  2.6 0.12 0  2.65 0.12 0  2.7 0.12 0  2.75 0.12 0  2.8 0.12 0  2.85 0.12 0  2.9 0.12 0  2.95 0.12 0  3 0.12 0  3.05 0.12 0  3.1 0.12 0  3.15 0.12 0  3.2 0.12 0  3.25 0.12 0  3.3 0.12 0  3.35 0.12 0  3.4 0.12 0  3.45 0.12 0  3.5 0.12 0  3.55 0.12 0  3.6 0.12 0  3.65 0.12 0  3.7 0.12 0  3.75 0.12 0  3.8 0.12 0  3.85 0.12 0  3.9 0.12 0  3.95 0.12 0  4 0.12 0  4.05 0.12 0  4.1 0.12 0  4.15 0.12 0  4.2 0.12 0  4.25 0.12 0  4.3 0.12 0  4.35 0.12 0  4.4 0.12 0  4.45 0.12 0  4.5 0.12 0  4.55 0.12 0  4.6 0.12 0  4.65 0.12 0  4.7 0.12 0  4.75 0.12 0  4.8 0.12 0  4.85 0.12 0  4.9 0.12 0  4.95 0.12 0  5 0.12 0  0 0.15 0  0.05 0.15 0  0.1 0.15 0  0.15 0.15 0  0.2 0.15 0  0.25 0.15 0  0.3 0.15 0  0.35 0.15 0  0.4 0.15 0  0.45 0.15 0  0.5 0.15 0  0.55 0.15 0  0.6 0.15 0  0.65 0.15 0  0.7 0.15 0  0.75 0.15 0  0.8 0.15 0  0.85 0.15 0  0.9 0.15 0  0.95 0.15 0  1 0.15 0  1.05 0.15 0  1.1 0.15 0  1.15 0.15 0  1.2 0.15 0  1.25 0.15 0  1.3 0.15 0  1.35 0.15 0  1.4 0.15 0  1.45 0.15 0  1.5 0.15 0  1.55 0.15 0  1.6 0.15 0  1.65 0.15 0  1.7 0.15 0  1.75 0.15 0  1.8 0.15 0  1.85 0.15 0  1.9 0.15 0  1.95 0.15 0  2 0.15 0  2.05 0.15 0  2.1 0.15 0  2.15 0.15 0  2.2 0.15 0  2.25 0.15 0  2.3 0.15 0  2.35 0.15 0  2.4 0.15 0  2.45 0.15 0  2.5 0.15 0  2.55 0.15 0  2.6 0.15 0  2.65 0.15 0  2.7 0.15 0  2.75 0.15 0  2.8 0.15 0  2.85 0.15 0  2.9 0.15 0  2.95 0.15 0  3 0.15 0  3.05 0.15 0  3.1 0.15 0  3.15 0.15 0  3.2 0.15 0  3.25 0.15 0  3.3 0.15 0  3.35 0.15 0  3.4 0.15 0  3.45 0.15 0  3.5 0.15 0  3.55 0.15 0  3.6 0.15 0  3.65 0.15 0  3.7 0.15 0  3.75 0.15 0  3.8 0.15 0  3.85 0.15 0  3.9 0.15 0  3.95 0.15 0  4 0.15 0  4.05 0.15 0  4.1 0.15 0  4.15 0.15 0  4.2 0.15 0  4.25 0.15 0  4.3 0.15 0  4.35 0.15 0  4.4 0.15 0  4.45 0.15 0  4.5 0.15 0  4.55 0.15 0  4.6 0.15 0  4.65 0.15 0  4.7 0.15 0  4.75 0.15 0  4.8 0.15 0  4.85 0.15 0  4.9 0.15 0  4.95 0.15 0  5 0.15 0  0 0.18 0  0.05 0.18 0  0.1 0.18 0  0.15 0.18 0  0.2 0.18 0  0.25 0.18 0  0.3 0.18 0  0.35 0.18 0  0.4 0.18 0  0.45 0.18 0  0.5 0.18 0  0.55 0.18 0  0.6 0.18 0  0.65 0.18 0  0.7 0.18 0  0.75 0.18 0  0.8 0.18 0  0.85 0.18 0  0.9 0.18 0  0.95 0.18 0  1 0.18 0  1.05 0.18 0  1.1 0.18 0  1.15 0.18 0  1.2 0.18 0  1.25 0.18 0  1.3 0.18 0  1.35 0.18 0  1.4 0.18 0  1.45 0.18 0  1.5 0.18 0  1.55 0.18 0  1.6 0.18 0  1.65 0.18 0  1.7 0.18 0  1.75 0.18 0  1.8 0.18 0  1.85 0.18 0  1.9 0.18 0  1.95 0.18 0  2 0.18 0  2.05 0.18 0  2.1 0.18 0  2.15 0.18 0  2.2 0.18 0  2.25 0.18 0  2.3 0.18 0  2.35 0.18 0  2.4 0.18 0  2.45 0.18 0  2.5 0.18 0  2.55 0.18 0  2.6 0.18 0  2.65 0.18 0  2.7 0.18 0  2.75 0.18 0  2.8 0.18 0  2.85 0.18 0  2.9 0.18 0  2.95 0.18 0  3 0.18 0  3.05 0.18 0  3.1 0.18 0  3.15 0.18 0  3.2 0.18 0  3.25 0.18 0  3.3 0.18 0  3.35 0.18 0  3.4 0.18 0  3.45 0.18 0  3.5 0.18 0  3.55 0.18 0  3.6 0.18 0  3.65 0.18 0  3.7 0.18 0  3.75 0.18 0  3.8 0.18 0  3.85 0.18 0  3.9 0.18 0  3.95 0.18 0  4 0.18 0  4.05 0.18 0  4.1 0.18 0  4.15 0.18 0  4.2 0.18 0  4.25 0.18 0  4.3 0.18 0  4.35 0.18 0  4.4 0.18 0  4.45 0.18 0  4.5 0.18 0  4.55 0.18 0  4.6 0.18 0  4.65 0.18 0  4.7 0.18 0  4.75 0.18 0  4.8 0.18 0  4.85 0.18 0  4.9 0.18 0  4.95 0.18 0  5 0.18 0  0 0.21 0  0.05 0.21 0  0.1 0.21 0  0.15 0.21 0  0.2 0.21 0  0.25 0.21 0  0.3 0.21 0  0.35 0.21 0  0.4 0.21 0  0.45 0.21 0  0.5 0.21 0  0.55 0.21 0  0.6 0.21 0  0.65 0.21 0  0.7 0.21 0  0.75 0.21 0  0.8 0.21 0  0.85 0.21 0  0.9 0.21 0  0.95 0.21 0  1 0.21 0  1.05 0.21 0  1.1 0.21 0  1.15 0.21 0  1.2 0.21 0  1.25 0.21 0  1.3 0.21 0  1.35 0.21 0  1.4 0.21 0  1.45 0.21 0  1.5 0.21 0  1.55 0.21 0  1.6 0.21 0  1.65 0.21 0  1.7 0.21 0  1.75 0.21 0  1.8 0.21 0  1.85 0.21 0  1.9 0.21 0  1.95 0.21 0  2 0.21 0  2.05 0.21 0  2.1 0.21 0  2.15 0.21 0  2.2 0.21 0  2.25 0.21 0  2.3 0.21 0  2.35 0.21 0  2.4 0.21 0  2.45 0.21 0  2.5 0.21 0  2.55 0.21 0  2.6 0.21 0  2.65 0.21 0  2.7 0.21 0  2.75 0.21 0  2.8 0.21 0  2.85 0.21 0  2.9 0.21 0  2.95 0.21 0  3 0.21 0  3.05 0.21 0  3.1 0.21 0  3.15 0.21 0  3.2 0.21 0  3.25 0.21 0  3.3 0.21 0  3.35 0.21 0  3.4 0.21 0  3.45 0.21 0  3.5 0.21 0  3.55 0.21 0  3.6 0.21 0  3.65 0.21 0  3.7 0.21 0  3.75 0.21 0  3.8 0.21 0  3.85 0.21 0  3.9 0.21 0  3.95 0.21 0  4 0.21 0  4.05 0.21 0  4.1 0.21 0  4.15 0.21 0  4.2 0.21 0  4.25 0.21 0  4.3 0.21 0  4.35 0.21 0  4.4 0.21 0  4.45 0.21 0  4.5 0.21 0  4.55 0.21 0  4.6 0.21 0  4.65 0.21 0  4.7 0.21 0  4.75 0.21 0  4.8 0.21 0  4.85 0.21 0  4.9 0.21 0  4.95 0.21 0  5 0.21 0  0 0.24 0  0.05 0.24 0  0.1 0.24 0  0.15 0.24 0  0.2 0.24 0  0.25 0.24 0  0.3 0.24 0
[...]
<PointData  Scalars="f_64"> 
<DataArray  type="Float64"  Name="f_64"  format="ascii">-4.1255633051082039e-19  -4.1519934338384731e-05  -6.2333884095420992e-05  -7.5039114440364667e-05  -8.3674829252279934e-05  -9.0092894805338946e-05  -9.5254064587849358e-05  -9.9690227536282001e-05  -1.0369527587304412e-04  -1.0742909933744397e-04  -1.1097742997396062e-04  -1.1438592225420197e-04  -1.1767898476040635e-04  -1.2086986819074750e-04  -1.2396594133767469e-04  -1.2697141739103591e-04  -1.2988876763499961e-04  -1.3271946948112317e-04  -1.3546441590961327e-04  -1.3812414863583546e-04  -1.4069899572350929e-04  -1.4318915486811088e-04  -1.4559474444669990e-04  -1.4791583488530578e-04  -1.5015246784595227e-04  -1.5230466786742331e-04  -1.5437244936155822e-04  -1.5635582078051081e-04  -1.5825478708029090e-04  -1.6006935116898532e-04  -1.6179951475516876e-04  -1.6344527884415316e-04  -1.6500664402829587e-04  -1.6648361065703206e-04  -1.6787617893666083e-04  -1.6918434898903208e-04  -1.7040812088612369e-04  -1.7154749467044710e-04  -1.7260247036710304e-04  -1.7357304799090154e-04  -1.7445922755057988e-04  -1.7526100905128952e-04  -1.7597839249606367e-04  -1.7661137788668862e-04  -1.7715996522421653e-04  -1.7762415450926138e-04  -1.7800394574218946e-04  -1.7829933892320760e-04  -1.7851033405243781e-04  -1.7863693112994762e-04  -1.7867913015577098e-04  -1.7863693112991967e-04  -1.7851033405238192e-04  -1.7829933892312368e-04  -1.7800394574207771e-04  -1.7762415450912241e-04  -1.7715996522404981e-04  -1.7661137788649675e-04  -1.7597839249584575e-04  -1.7526100905104674e-04  -1.7445922755031512e-04  -1.7357304799061712e-04  -1.7260247036680022e-04  -1.7154749467012908e-04  -1.7040812088579133e-04  -1.6918434898868781e-04  -1.6787617893630953e-04  -1.6648361065667666e-04  -1.6500664402794085e-04  -1.6344527884379979e-04  -1.6179951475481775e-04  -1.6006935116864187e-04  -1.5825478707995859e-04  -1.5635582078019162e-04  -1.5437244936125337e-04  -1.5230466786713361e-04  -1.5015246784568100e-04  -1.4791583488505612e-04  -1.4559474444647146e-04  -1.4318915486790355e-04  -1.4069899572332291e-04  -1.3812414863567107e-04  -1.3546441590947037e-04  -1.3271946948100041e-04  -1.2988876763489436e-04  -1.2697141739094708e-04  -1.2396594133760224e-04  -1.2086986819068953e-04  -1.1767898476036088e-04  -1.1438592225416760e-04  -1.1097742997393458e-04  -1.0742909933742570e-04  -1.0369527587303218e-04  -9.9690227536275495e-05  -9.5254064587846064e-05  -9.0092894805338214e-05  -8.3674829252281709e-05  -7.5039114440366930e-05  -6.2333884095422808e-05  -4.1519934338385490e-05  -2.9515482548900073e-19  -2.7402781171519722e-19  -2.3058115447900085e-05  -4.1975781988051492e-05  -5.4228099085791929e-05  -6.2678440890107489e-05  -6.8989670501634113e-05  -7.4084818025240405e-05  -7.8480370126457485e-05  -8.2461026632724979e-05  -8.6180566895327113e-05  -8.9720707550643917e-05  -9.3124570485215191e-05  -9.6415034019088562e-05  -9.9604457532132627e-05  -1.0269970500074017e-04  -1.0570470889841170e-04  -1.0862178568745314e-04  -1.1145232724981147e-04  -1.1419717883393254e-04  -1.1685685509054926e-04  -1.1943166845887532e-04  -1.2192180746432599e-04  -1.2432738503424698e-04  -1.2664846833129834e-04  -1.2888509705755963e-04  -1.3103729457541842e-04  -1.3310507459266829e-04  -1.3508844514181439e-04  -1.3698741092979373e-04  -1.3880197471743003e-04  -1.4053213812648631e-04  -1.4217790211120684e-04  -1.4373926723393535e-04  -1.4521623382647355e-04  -1.4660880208475536e-04  -1.4791697212453329e-04  -1.4914074401419376e-04  -1.5028011779413320e-04  -1.5133509348820286e-04  -1.5230567111047672e-04  -1.5319185066925694e-04  -1.5399363216943781e-04  -1.5471101561390121e-04  -1.5534400100434461e-04  -1.5589258834176556e-04  -1.5635677762674879e-04  -1.5673656885964086e-04  -1.5703196204063891e-04  -1.5724295716985784e-04  -1.5736955424736177e-04  -1.5741175327318362e-04  -1.5736955424733374e-04  -1.5724295716980114e-04  -1.5703196204055445e-04  -1.5673656885952891e-04  -1.5635677762660947e-04  -1.5589258834159894e-04  -1.5534400100415167e-04  -1.5471101561368277e-04  -1.5399363216919546e-04  -1.5319185066899106e-04  -1.5230567111019144e-04  -1.5133509348789898e-04  -1.5028011779381404e-04  -1.4914074401386034e-04  -1.4791697212418746e-04  -1.4660880208440313e-04  -1.4521623382611815e-04  -1.4373926723357941e-04  -1.4217790211085222e-04  -1.4053213812613468e-04  -1.3880197471708642e-04  -1.3698741092946039e-04  -1.3508844514149458e-04  -1.3310507459236257e-04  -1.3103729457512853e-04  -1.2888509705728809e-04  -1.2664846833104757e-04  -1.2432738503401818e-04  -1.2192180746411864e-04  -1.1943166845868924e-04  -1.1685685509038540e-04  -1.1419717883378971e-04  -1.1145232724968913e-04  -1.0862178568734835e-04  -1.0570470889832350e-04  -1.0269970500066840e-04  -9.9604457532075341e-05  -9.6415034019044056e-05  -9.3124570485180890e-05  -8.9720707550618493e-05  -8.6180566895309224e-05  -8.2461026632713594e-05  -7.8480370126451658e-05  -7.4084818025237559e-05  -6.8989670501633693e-05  -6.2678440890109752e-05  -5.4228099085794382e-05  -4.1975781988053694e-05  -2.3058115447901088e-05  -2.0110828642695240e-19  -1.3542255253071437e-19  -1.2149856321685053e-05  -2.6196747666985393e-05  -3.6739652826079404e-05  -4.4459694604147592e-05  -5.0406983948782428e-05  -5.5307893240799785e-05  -5.9596398367648280e-05  -6.3517037720168631e-05  -6.7202525377852928e-05  -7.0723144964946873e-05  -7.4115708983361092e-05  -7.7399575667385243e-05  -8.0585119986414415e-05  -8.3678074427292082e-05  -8.6681718578912199e-05  -8.9597987955026846e-05  -9.2428050108779122e-05  -9.5172617327931357e-05  -9.7832125165904342e-05  -1.0040683894922240e-04  -1.0289691915817835e-04  -1.0530246205448445e-04  -1.0762352491979744e-04  -1.0986014161130219e-04  -1.1201233204092114e-04  -1.1408010788261196e-04  -1.1606347597121833e-04  -1.1796244030871921e-04  -1.1977700324098943e-04  -1.2150716614547199e-04  -1.2315292983248294e-04  -1.2471429477953514e-04  -1.2619126126840461e-04  -1.2758382946551202e-04  -1.2889199946919394e-04  -1.3011577133755945e-04  -1.3125514510493682e-04  -1.3231012079159714e-04  -1.3328069840950197e-04  -1.3416687796570585e-04  -1.3496865946436852e-04  -1.3568604290793736e-04  -1.3631902829785376e-04  -1.3686761563496463e-04  -1.3733180491976667e-04  -1.3771159615255242e-04  -1.3800698933348848e-04  -1.3821798446267349e-04  -1.3834458154016004e-04  -1.3838678056597663e-04  -1.3834458154013209e-04  -1.3821798446261694e-04  -1.3800698933340438e-04  -1.3771159615244010e-04  -1.3733180491962699e-04  -1.3686761563479815e-04  -1.3631902829766064e-04  -1.3568604290771846e-04  -1.3496865946412500e-04  -1.3416687796544000e-04  -1.3328069840921571e-04  -1.3231012079129267e-04  -1.3125514510461660e-04  -1.3011577133722519e-04  -1.2889199946884797e-04  -1.2758382946515922e-04  -1.2619126126804802e-04  -1.2471429477917869e-04  -1.2315292983212697e-04  -1.2150716614511916e-04  -1.1977700324064491e-04  -1.1796244030838508e-04  -1.1606347597089802e-04  -1.1408010788230557e-04  -1.1201233204063041e-04  -1.0986014161103038e-04  -1.0762352491954670e-04  -1.0530246205425517e-04  -1.0289691915797070e-04  -1.0040683894903616e-04  -9.7832125165740329e-05  -9.5172617327788731e-05  -9.2428050108656716e-05  -8.9597987954922288e-05  -8.6681718578824243e-05  -8.3678074427220471e-05  -8.0585119986357535e-05  -7.7399575667340940e-05  -7.4115708983326994e-05  -7.0723144964921774e-05  -6.7202525377835554e-05  -6.3517037720157844e-05  -5.9596398367642506e-05  -5.5307893240797291e-05  -5.0406983948782435e-05  -4.4459694604149916e-05  -3.6739652826082277e-05  -2.6196747666987585e-05  -1.2149856321686274e-05  -1.0097040933594322e-19  -5.2583657506254852e-20  -5.4952339906274703e-06  -1.4405433497479089e-05  -2.2463049307793066e-05  -2.8982915068482198e-05  -3.4323420477548474e-05  -3.8907048170871235e-05  -4.3026195213339110e-05  -4.6854853177832720e-05  -5.0489439359608432e-05  -5.3981304340879142e-05  -5.7357288701181640e-05  -6.0631425234391362e-05  -6.3811184844350563e-05  -6.6900674005720552e-05  -6.9902236520090455e-05  -7.2817256463057623e-05  -7.5646571005448843e-05  -7.8390692745382163e-05  -8.1049936278794637e-05  -8.3624493847672159e-05  -8.6114482000654839e-05  -8.8519970754681512e-05  -9.0841001807104996e-05  -9.3077599808356293e-05  -9.5229779251967430e-05  -9.7297548630604502e-05  -9.9280912913203730e-05  -1.0117987500725559e-04  -1.0299443661608661e-04  -1.0472459873942351e-04  -1.0637036196523078e-04  -1.0793172663995327e-04  -1.0940869296803076e-04  -1.1080126107021898e-04  -1.1210943101788126e-04  -1.1333320285319337e-04  -1.1447257660107237e-04  -1.1552755227623206e-04  -1.1649812988735472e-04  -1.1738430943955970e-04  -1.1818609093586481e-04  -1.1890347437804357e-04  -1.1953645976714114e-04  -1.2008504710377009e-04  -1.2054923638828861e-04  -1.2092902762090801e-04  -1.2122442080174805e-04  -1.2143541593087919e-04  -1.2156201300833886e-04  -1.2160421203414698e-04  -1.2156201300831059e-04  -1.2143541593082231e-04  -1.2122442080166403e-04  -1.2092902762079523e-04  -1.2054923638814871e-04  -1.2008504710360276e-04  -1.1953645976694763e-04  -1.1890347437782449e-04  -1.1818609093562058e-04  -1.1738430943929346e-04  -1.1649812988706833e-04  -1.1552755227592664e-04  -1.1447257660075114e-04  -1.1333320285285809e-04  -1.1210943101753492e-04  -1.1080126106986532e-04  -1.0940869296767304e-04  -1.0793172663959570e-04  -1.0637036196487403e-04  -1.0472459873907063e-04  -1.0299443661574110e-04  -1.0117987500692064e-04  -9.9280912912882264e-05  -9.7297548630296968e-05  -9.5229779251676457e-05  -9.3077599808084253e-05  -9.0841001806853420e-05  -8.8519970754451769e-05  -8.6114482000446401e-05  -8.3624493847486055e-05  -8.1049936278630570e-05  -7.8390692745239211e-05  -7.5646571005325827e-05  -7.2817256462952957e-05  -6.9902236520002662e-05  -6.6900674005648860e-05  -6.3811184844293466e-05  -6.0631425234346829e-05  -5.7357288701147861e-05  -5.3981304340854137e-05  -5.0489439359591010e-05  -4.6854853177822013e-05  -4.3026195213333445e-05  -3.8907048170868958e-05  -3.4323420477548772e-05  -2.8982915068484390e-05  -2.2463049307795848e-05  -1.4405433497481389e-05  -5.4952339906287892e-06  -3.9379779625831237e-20  -2.4003775168426900e-21  -1.0316358392348749e-06  -5.6505924393306299e-06  -1.1048353846713384e-05  -1.6108824649913537e-05  -2.0674319553213754e-05  -2.4848555759176852e-05  -2.8750767276186658e-05  -3.2463291523849214e-05  -3.6034581001872265e-05  -3.9491107481011943e-05  -4.2846840099121761e-05  -4.6109095297465620e-05  -4.9281762492448756e-05  -5.2366975377606644e-05  -5.5365950786156548e-05  -5.8279407859294470e-05  -6.1107782457419545e-05  -6.3851342147395237e-05  -6.6510251564887721e-05  -6.9084611536856234e-05  -7.1574483293953973e-05  -7.3979903662832786e-05  -7.6300894589149067e-05  -7.8537469049614792e-05  -8.0689634673385257e-05  -8.2757395929521774e-05  -8.4740755431730197e-05  -8.6639714708712048e-05  -8.8454274655689539e-05  -9.0184435797931151e-05  -9.1830198444296253e-05  -9.3391562776755089e-05  -9.4868528902684494e-05  -9.6261096885509807e-05  -9.7569266762713563e-05  -9.8793038556447925e-05  -9.9932412279798427e-05  -1.0098738794049108e-04  -1.0195796554308217e-04  -1.0284414509025644e-04  -1.0364592658359514e-04  -1.0436331002402529e-04  -1.0499629541209216e-04  -1.0554488274811308e-04  -1.0600907203227496e-04  -1.0638886326468463e-04  -1.0668425644540304e-04  -1.0689525157446627e-04  -1.0702184865189147e-04  -1.0706404767768959e-04  -1.0702184865186337e-04  -1.0689525157440910e-04  -1.0668425644531877e-04  -1.0638886326457205e-04  -1.0600907203213440e-04  -1.0554488274794602e-04  -1.0499629541189813e-04  -1.0436331002380583e-04  -1.0364592658335066e-04  -1.0284414508998979e-04  -1.0195796554279539e-04  -1.0098738794018540e-04  -9.9932412279476676e-05  -9.8793038556112161e-05  -9.7569266762367147e-05  -9.6261096885155503e-05  -9.4868528902326409e-05  -9.3391562776396760e-05  -9.1830198443939131e-05  -9.0184435797577810e-05  -8.8454274655343584e-05  -8.6639714708376772e-05  -8.4740755431408229e-05  -8.2757395929213996e-05  -8.0689634673093987e-05  -7.8537469049342264e-05  -7.6300894588897316e-05  -7.3979903662602420e-05  -7.1574483293745291e-05  -6.9084611536670117e-05  -6.6510251564723654e-05  -6.3851342147251729e-05  -6.1107782457295933e-05  -5.8279407859189207e-05  -5.5365950786068803e-05  -5.2366975377535121e-05  -4.9281762492391585e-05  -4.6109095297421167e-05  -4.2846840099087853e-05  -3.9491107480986959e-05  -3.6034581001855087e-05  -3.2463291523838500e-05  -2.8750767276180980e-05  -2.4848555759174751e-05  -2.0674319553214031e-05  -1.6108824649915695e-05  -1.1048353846716091e-05  -5.6505924393329466e-06  -1.0316358392362721e-06  -1.9601145795859641e-21  3.3790004905364197e-20  2.1266146754859331e-06  8.7939385755178072e-07  -2.0624542123972119e-06  -5.6310302289988881e-06  -9.3607255785637828e-06  -1.3083360712683384e-05  -1.6744790333447552e-05  -2.0328677999011621e-05  -2.3830226931545780e-05  -2.7248022125476694e-05  -3.0581631635294318e-05  -3.3830916342061285e-05  -3.6995828955543206e-05  -4.0076352788386829e-05  -4.3072481860542255e-05  -4.5984214033775070e-05  -4.8811548553076556e-05  -5.1554485156230248e-05  -5.4213023753626084e-05  -5.6787164315033534e-05  -5.9276906830332376e-05  -6.1682251296136091e-05  -6.4003197711300392e-05  -6.6239746075424856e-05  -6.8391896388358007e-05  -7.0459648650031864e-05  -7.2443002860408075e-05  -7.4341959019458775e-05  -7.6156517127159014e-05  -7.7886677183485779e-05  -7.9532439188418391e-05  -8.1093803141936939e-05  -8.2570769044022682e-05  -8.3963336894657037e-05  -8.5271506693822564e-05  -8.6495278441503447e-05  -8.7634652137684005e-05  -8.8689627782350888e-05  -8.9660205375491223e-05  -9.0546384917092662e-05  -9.1348166407145123e-05  -9.2065549845637249e-05  -9.2698535232561897e-05  -9.3247122567909893e-05  -9.3711311851675598e-05  -9.4091103083852182e-05  -9.4386496264435959e-05  -9.4597491393423404e-05  -9.4724088470810454e-05  -9.4766287496597147e-05  -9.4724088470782129e-05  -9.4597491393366470e-05  -9.4386496264351540e-05  -9.4091103083739262e-05  -9.3711311851534624e-05  -9.3247122567742383e-05  -9.2698535232367757e-05  -9.2065549845417752e-05  -9.1348166406900663e-05  -9.0546384916826138e-05  -8.9660205375204397e-05  -8.8689627782045143e-05  -8.7634652137361658e-05  -8.6495278441167209e-05  -8.5271506693475945e-05  -8.3963336894303208e-05  -8.2570769043664773e-05  -8.1093803141578258e-05  -7.9532439188061065e-05  -7.7886677183132356e-05  -7.6156517126812923e-05  -7.4341959019123268e-05  -7.2443002860085660e-05  -7.0459648649723748e-05  -6.8391896388066356e-05  -6.6239746075152356e-05  -6.4003197711048356e-05  -6.1682251295905603e-05  -5.9276906830123349e-05  -5.6787164314847119e-05  -5.4213023753461570e-05  -5.1554485156086490e-05  -4.8811548552952422e-05  -4.5984214033669611e-05  -4.3072481860454116e-05  -4.0076352788314899e-05  -3.6995828955485683e-05  -3.3830916342016351e-05  -3.0581631635260423e-05  -2.7248022125451635e-05  -2.3830226931528528e-05  -2.0328677999000871e-05  -1.6744790333441776e-05  -1.3083360712681246e-05  -9.3607255785641471e-06  -5.6310302290008939e-06  -2.0624542123997937e-06  8.7939385754949839e-07  2.1266146754845182e-06  2.4231920617257611e-20  5.8807876544670780e-20  4.4046469037945175e-06  5.7634713683803689e-06  4.8934632134471259e-06  2.6713703210862866e-06  -2.6962507210165298e-07  -3.5547257317696657e-06  -6.9794631111368487e-06  -1.0435916281407876e-05  -1.3868093157969337e-05  -1.7247276920635605e-05  -2.0558804512676542e-05  -2.3795133384186551e-05  -2.6952296691422721e-05  -3.0028133359991857e-05  -3.3021416761525770e-05  -3.5931424265476794e-05  -3.8757718784520363e-05  -4.1500032327267374e-05  -4.4158200113372772e-05  -4.6732121267144397e-05  -4.9221734541615496e-05  -5.1627003104667333e-05  -5.3947905008786326e-05  -5.6184427276604319e-05  -5.8336562278709811e-05  -6.0404305545923604e-05  -6.2387654464466681e-05  -6.4286607505585091e-05  -6.6101163774006031e-05  -6.7831322744416568e-05  -6.9477084107914575e-05  -7.1038447682491643e-05  -7.2515413360732056e-05  -7.3907981079173924e-05  -7.5216150800299486e-05  -7.6439922501925236e-05  -7.7579296170934468e-05  -7.8634271799575163e-05  -7.9604849383263585e-05  -8.0491028919291223e-05  -8.1292810406056247e-05  -8.2010193842610213e-05  -8.2643179228391353e-05  -8.3191766563065828e-05  -8.3655955846434539e-05  -8.4035747078378413e-05  -8.4331140258826949e-05  -8.4542135387738135e-05  -8.4668732465087264e-05  -8.4710931490862099e-05  -8.4668732465059088e-05  -8.4542135387681390e-05  -8.4331140258742327e-05  -8.4035747078265656e-05  -8.3655955846293782e-05  -8.3191766562898305e-05  -8.2643179228197253e-05  -8.2010193842390526e-05  -8.1292810405812031e-05  -8.0491028919024889e-05  -7.9604849382976597e-05  -7.8634271799269269e-05  -7.7579296170612527e-05  -7.6439922501589188e-05  -7.5216150799953382e-05  -7.3907981078820230e-05  -7.2515413360374202e-05  -7.1038447682132583e-05  -6.9477084107556978e-05  -6.7831322744063295e-05  -6.6101163773660401e-05  -6.4286607505249638e-05  -6.2387654464144158e-05  -6.0404305545615352e-05  -5.8336562278418418e-05  -5.6184427276332062e-05  -5.3947905008534425e-05  -5.1627003104436689e-05  -4.9221734541406624e-05  -4.6732121266957758e-05  -4.4158200113208136e-05  -4.1500032327123386e-05  -3.8757718784395924e-05  -3.5931424265371057e-05  -3.3021416761437543e-05  -3.0028133359919592e-05  -2.6952296691364899e-05  -2.3795133384141370e-05  -2.0558804512642305e-05  -1.7247276920610431e-05  -1.3868093157951857e-05  -1.0435916281396886e-05  -6.9794631111309009e-06  -3.5547257317674147e-06  -2.6962507210190566e-07  2.6713703210844672e-06  4.8934632134447068e-06  5.7634713683781946e-06  4.4046469037931241e-06  4.3408964575958151e-20  7.7686517075185444e-20  6.0442654975959355e-06  9.3941767239349754e-06  1.0132237258449914e-05  8.9902211169328305e-06  6.7036895872040539e-06  3.7918555648697565e-06  5.7341662269332043e-07  -2.7700804739151566e-06  -6.1399494158680898e-06  -9.4841192788590941e-06  -1.2775506903164889e-05  -1.5999994066718328e-05  -1.9150079133770088e-05  -2.2221644567157420e-05  -2.5212342631211193e-05  -2.8120787875701968e-05  -3.0946142658026056e-05  -3.3687894220572248e-05  -3.6345727914032387e-05  -3.8919451478636321e-05  -4.1408948359797601e-05  -4.3814148538557814e-05  -4.6135010316853550e-05  -4.8371509043976969e-05  -5.0523630226268420e-05  -5.2591365370986184e-05  -5.4574709509136484e-05  -5.6473659733180168e-05  -5.8288214339741853e-05  -6.0018372329051373e-05  -6.1664133113102543e-05  -6.3225496345410429e-05  -6.4702461821498569e-05  -6.6095029420572556e-05  -6.7403199071235128e-05  -6.8626970731278960e-05  -6.9766344375756789e-05  -7.0821319989926488e-05  -7.1791897565080153e-05  -7.2678077096074328e-05  -7.3479858579870197e-05  -7.4197242014672999e-05  -7.4830227399421125e-05  -7.5378814733486672e-05  -7.5843004016496376e-05  -7.6222795248229779e-05  -7.6518188428555746e-05  -7.6729183557398004e-05  -7.6855780634712263e-05  -7.6897979660476567e-05  -7.6855780634684127e-05  -7.6729183557341422e-05  -7.6518188428471097e-05  -7.6222795248116738e-05  -7.5843004016355660e-05  -7.5378814733318905e-05  -7.4830227399227324e-05  -7.4197242014453204e-05  -7.3479858579626251e-05  -7.2678077095807980e-05  -7.1791897564793585e-05  -7.0821319989620906e-05  -6.9766344375434659e-05  -6.8626970730943521e-05  -6.7403199070889728e-05  -6.6095029420219594e-05  -6.4702461821140837e-05  -6.3225496345051531e-05  -6.1664133112745393e-05  -6.0018372328698716e-05  -5.8288214339396887e-05  -5.6473659732844926e-05  -5.4574709508814097e-05  -5.2591365370678244e-05  -5.0523630225977278e-05  -4.8371509043704908e-05  -4.6135010316601819e-05  -4.3814148538327171e-05  -4.1408948359588621e-05  -3.8919451478449730e-05  -3.6345727913867473e-05  -3.3687894220427927e-05  -3.0946142657901237e-05  -2.8120787875595872e-05  -2.5212342631122654e-05  -2.2221644567084880e-05  -1.9150079133711975e-05  -1.5999994066672761e-05  -1.2775506903130335e-05  -9.48411927883