<?xml version="1.0"?>
<VTKFile type="UnstructuredGrid"  version="0.1"  >
<UnstructuredGrid>
<Piece  NumberOfPoints="2111" NumberOfCells="4000">
<Points>
<DataArray  type="Float64"  NumberOfComponents="3"  format="ascii">0 0 0  0.05 0 0  0.1 0 0  0.15 0 0  0.2 0 0  0.25 0 0  0.3 0 0  0.35 0 0  0.4 0 0  0.45 0 0  0.5 0 0  0.55 0 0  0.6 0 0  0.65 0 0  0.7 0 0  0.75 0 0  0.8 0 0  0.85 0 0  0.9 0 0  0.95 0 0  1 0 0  1.05 0 0  1.1 0 0  1.15 0 0  1.2 0 0  1.25 0 0  1.3 0 0  1.35 0 0  1.4 0 0  1.45 0 0  1.5 0 0  1.55 0 0  1.6 0 0  1.65 0 0  1.7 0 0  1.75 0 0  1.8 0 0  1.85 0 0  1.9 0 0  1.95 0 0  2 0 0  2.05 0 0  2.1 0 0  2.15 0 0  2.2 0 0  2.25 0 0  2.3 0 0  2.35 0 0  2.4 0 0  2.45 0 0  2.5 0 0  2.55 0 0  2.6 0 0  2.65 0 0  2.7 0 0  2.75 0 0  2.8 0 0  2.85 0 0  2.9 0 0  2.95 0 0  3 0 0  3.05 0 0  3.1 0 0  3.15 0 0  3.2 0 0  3.25 0 0  3.3 0 0  3.35 0 0  3.4 0 0  3.45 0 0  3.5 0 0  3.55 0 0  3.6 0 0  3.65 0 0  3.7 0 0  3.75 0 0  3.8 0 0  3.85 0 0  3.9 0 0  3.95 0 0  4 0 0  4.05 0 0  4.1 0 0  4.15 0 0  4.2 0 0  4.25 0 0  4.3 0 0  4.35 0 0  4.4 0 0  4.45 0 0  4.5 0 0  4.55 0 0  4.6 0 0  4.65 0 0  4.7 0 0  4.75 0 0  4.8 0 0  4.85 0 0  4.9 0 0  4.95 0 0  5 0 0  0 0.03 0  0.05 0.03 0  0.1 0.03 0  0.15 0.03 0  0.2 0.03 0  0.25 0.03 0  0.3 0.03 0  0.35 0.03 0  0.4 0.03 0  0.45 0.03 0  0.5 0.03 0  0.55 0.03 0  0.6 0.03 0  0.65 0.03 0  0.7 0.03 0  0.75 0.03 0  0.8 0.03 0  0.85 0.03 0  0.9 0.03 0  0.95 0.03 0  1 0.03 0  1.05 0.03 0  1.1 0.03 0  1.15 0.03 0  1.2 0.03 0  1.25 0.03 0  1.3 0.03 0  1.35 0.03 0  1.4 0.03 0  1.45 0.03 0  1.5 0.03 0  1.55 0.03 0  1.6 0.03 0  1.65 0.03 0  1.7 0.03 0  1.75 0.03 0  1.8 0.03 0  1.85 0.03 0  1.9 0.03 0  1.95 0.03 0  2 0.03 0  2.05 0.03 0  2.1 0.03 0  2.15 0.03 0  2.2 0.03 0  2.25 0.03 0  2.3 0.03 0  2.35 0.03 0  2.4 0.03 0  2.45 0.03 0  2.5 0.03 0  2.55 0.03 0  2.6 0.03 0  2.65 0.03 0  2.7 0.03 0  2.75 0.03 0  2.8 0.03 0  2.85 0.03 0  2.9 0.03 0  2.95 0.03 0  3 0.03 0  3.05 0.03 0  3.1 0.03 0  3.15 0.03 0  3.2 0.03 0  3.25 0.03 0  3.3 0.03 0  3.35 0.03 0  3.4 0.03 0  3.45 0.03 0  3.5 0.03 0  3.55 0.03 0  3.6 0.03 0  3.65 0.03 0  3.7 0.03 0  3.75 0.03 0  3.8 0.03 0  3.85 0.03 0  3.9 0.03 0  3.95 0.03 0  4 0.03 0  4.05 0.03 0  4.1 0.03 0  4.15 0.03 0  4.2 0.03 0  4.25 0.03 0  4.3 0.03 0  4.35 0.03 0  4.4 0.03 0  4.45 0.03 0  4.5 0.03 0  4.55 0.03 0  4.6 0.03 0  4.65 0.03 0  4.7 0.03 0  4.75 0.03 0  4.8 0.03 0  4.85 0.03 0  4.9 0.03 0  4.95 0.03 0  5 0.03 0  0 0.06 0  0.05 0.06 0  0.1 0.06 0  0.15 0.06 0  0.2 0.06 0  0.25 0.06 0  0.3 0.06 0  0.35 0.06 0  0.4 0.06 0  0.45 0.06 0  0.5 0.06 0  0.55 0.06 0  0.6 0.06 0  0.65 0.06 0  0.7 0.06 0  0.75 0.06 0  0.8 0.06 0  0.85 0.06 0  0.9 0.06 0  0.95 0.06 0  1 0.06 0  1.05 0.06 0  1.1 0.06 0  1.15 0.06 0  1.2 0.06 0  1.25 0.06 0  1.3 0.06 0  1.35 0.06 0  1.4 0.06 0  1.45 0.06 0  1.5 0.06 0  1.55 0.06 0  1.6 0.06 0  1.65 0.06 0  1.7 0.06 0  1.75 0.06 0  1.8 0.06 0  1.85 0.06 0  1.9 0.06 0  1.95 0.06 0  2 0.06 0  2.05 0.06 0  2.1 0.06 0  2.15 0.06 0  2.2 0.06 0  2.25 0.06 0  2.3 0.06 0  2.35 0.06 0  2.4 0.06 0  2.45 0.06 0  2.5 0.06 0  2.55 0.06 0  2.6 0.06 0  2.65 0.06 0  2.7 0.06 0  2.75 0.06 0  2.8 0.06 0  2.85 0.06 0  2.9 0.06 0  2.95 0.06 0  3 0.06 0  3.05 0.06 0  3.1 0.06 0  3.15 0.06 0  3.2 0.06 0  3.25 0.06 0  3.3 0.06 0  3.35 0.06 0  3.4 0.06 0  3.45 0.06 0  3.5 0.06 0  3.55 0.06 0  3.6 0.06 0  3.65 0.06 0  3.7 0.06 0  3.75 0.06 0  3.8 0.06 0  3.85 0.06 0  3.9 0.06 0  3.95 0.06 0  4 0.06 0  4.05 0.06 0  4.1 0.06 0  4.15 0.06 0  4.2 0.06 0  4.25 0.06 0  4.3 0.06 0  4.35 0.06 0  4.4 0.06 0  4.45 0.06 0  4.5 0.06 0  4.55 0.06 0  4.6 0.06 0  4.65 0.06 0  4.7 0.06 0  4.75 0.06 0  4.8 0.06 0  4.85 0.06 0  4.9 0.06 0  4.95 0.06 0  5 0.06 0  0 0.09 0  0.05 0.09 0  0.1 0.09 0  0.15 0.09 0  0.2 0.09 0  0.25 0.09 0  0.3 0.09 0  0.35 0.09 0  0.4 0.09 0  0.45 0.09 0  0.5 0.09 0  0.55 0.09 0  0.6 0.09 0  0.65 0.09 0  0.7 0.09 0  0.75 0.09 0  0.8 0.09 0  0.85 0.09 0  0.9 0.09 0  0.95 0.09 0  1 0.09 0  1.05 0.09 0  1.1 0.09 0  1.15 0.09 0  1.2 0.09 0  1.25 0.09 0  1.3 0.09 0  1.35 0.09 0  1.4 0.09 0  1.45 0.09 0  1.5 0.09 0  1.55 0.09 0  1.6 0.09 0  1.65 0.09 0  1.7 0.09 0  1.75 0.09 0  1.8 0.09 0  1.85 0.09 0  1.9 0.09 0  1.95 0.09 0  2 0.09 0  2.05 0.09 0  2.1 0.09 0  2.15 0.09 0  2.2 0.09 0  2.25 0.09 0  2.3 0.09 0  2.35 0.09 0  2.4 0.09 0  2.45 0.09 0  2.5 0.09 0  2.55 0.09 0  2.6 0.09 0  2.65 0.09 0  2.7 0.09 0  2.75 0.09 0  2.8 0.09 0  2.85 0.09 0  2.9 0.09 0  2.95 0.09 0  3 0.09 0  3.05 0.09 0  3.1 0.09 0  3.15 0.09 0  3.2 0.09 0  3.25 0.09 0  3.3 0.09 0  3.35 0.09 0  3.4 0.09 0  3.45 0.09 0  3.5 0.09 0  3.55 0.09 0  3.6 0.09 0  3.65 0.09 0  3.7 0.09 0  3.75 0.09 0  3.8 0.09 0  3.85 0.09 0  3.9 0.09 0  3.95 0.09 0  4 0.09 0  4.05 0.09 0  4.1 0.09 0  4.15 0.09 0  4.2 0.09 0  4.25 0.09 0  4.3 0.09 0  4.35 0.09 0  4.4 0.09 0  4.45 0.09 0  4.5 0.09 0  4.55 0.09 0  4.6 0.09 0  4.65 0.09 0  4.7 0.09 0  4.75 0.09 0  4.8 0.09 0  4.85 0.09 0  4.9 0.09 0  4.95 0.09 0  5 0.09 0  0 0.12 0  0.05 0.12 0  0.1 0.12 0  0.15 0.12 0  0.2 0.12 0  0.25 0.12 0  0.3 0.12 0  0.35 0.12 0  0.4 0.12 0  0.45 0.12 0  0.5 0.12 0  0.55 0.12 0  0.6 0.12 0  0.65 0.12 0  0.7 0.12 0  0.75 0.12 0  0.8 0.12 0  0.85 0.12 0  0.9 0.12 0  0.95 0.12 0  1 0.12 0  1.05 0.12 0  1.1 0.12 0  1.15 0.12 0  1.2 0.12 0  1.25 0.12 0  1.3 0.12 0  1.35 0.12 0  1.4 0.12 0  1.45 0.12 0  1.5 0.12 0  1.55 0.12 0  1.6 0.12 0  1.65 0.12 0  1.7 0.12 0  1.75 0.12 0  1.8 0.12 0  1.85 0.12 0  1.9 0.12 0  1.95 0.12 0  2 0.12 0  2.05 0.12 0  2.1 0.12 0  2.15 0.12 0  2.2 0.12 0  2.25 0.12 0  2.3 0.12 0  2.35 0.12 0  2.4 0.12 0  2.45 0.12 0  2.5 0.12 0  2.55 0.12 0  2.6 0.12 0  2.65 0.12 0  2.7 0.12 0  2.75 0.12 0  2.8 0.12 0  2.85 0.12 0  2.9 0.12 0  2.95 0.12 0  3 0.12 0  3.05 0.12 0  3.1 0.12 0  3.15 0.12 0  3.2 0.12 0  3.25 0.12 0  3.3 0.12 0  3.35 0.12 0  3.4 0.12 0  3.45 0.12 0  3.5 0.12 0  3.55 0.12 0  3.6 0.12 0  3.65 0.12 0  3.7 0.12 0  3.75 0.12 0  3.8 0.12 0  3.85 0.12 0  3.9 0.12 0  3.95 0.12 0  4 0.12 0  4.05 0.12 0  4.1 0.12 0  4.15 0.12 0  4.2 0.12 0  4.25 0.12 0  4.3 0.12 0  4.35 0.12 0  4.4 0.12 0  4.45 0.12 0  4.5 0.12 0  4.55 0.12 0  4.6 0.12 0  4.65 0.12 0  4.7 0.12 0  4.75 0.12 0  4.8 0.12 0  4.85 0.12 0  4.9 0.12 0  4.95 0.12 0  5 0.12 0  0 0.15 0  0.05 0.15 0  0.1 0.15 0  0.15 0.15 0  0.2 0.15 0  0.25 0.15 0  0.3 0.15 0  0.35 0.15 0  0.4 0.15 0  0.45 0.15 0  0.5 0.15 0  0.55 0.15 0  0.6 0.15 0  0.65 0.15 0  0.7 0.15 0  0.75 0.15 0  0.8 0.15 0  0.85 0.15 0  0.9 0.15 0  0.95 0.15 0  1 0.15 0  1.05 0.15 0  1.1 0.15 0  1.15 0.15 0  1.2 0.15 0  1.25 0.15 0  1.3 0.15 0  1.35 0.15 0  1.4 0.15 0  1.45 0.15 0  1.5 0.15 0  1.55 0.15 0  1.6 0.15 0  1.65 0.15 0  1.7 0.15 0  1.75 0.15 0  1.8 0.15 0  1.85 0.15 0  1.9 0.15 0  1.95 0.15 0  2 0.15 0  2.05 0.15 0  2.1 0.15 0  2.15 0.15 0  2.2 0.15 0  2.25 0.15 0  2.3 0.15 0  2.35 0.15 0  2.4 0.15 0  2.45 0.15 0  2.5 0.15 0  2.55 0.15 0  2.6 0.15 0  2.65 0.15 0  2.7 0.15 0  2.75 0.15 0  2.8 0.15 0  2.85 0.15 0  2.9 0.15 0  2.95 0.15 0  3 0.15 0  3.05 0.15 0  3.1 0.15 0  3.15 0.15 0  3.2 0.15 0  3.25 0.15 0  3.3 0.15 0  3.35 0.15 0  3.4 0.15 0  3.45 0.15 0  3.5 0.15 0  3.55 0.15 0  3.6 0.15 0  3.65 0.15 0  3.7 0.15 0  3.75 0.15 0  3.8 0.15 0  3.85 0.15 0  3.9 0.15 0  3.95 0.15 0  4 0.15 0  4.05 0.15 0  4.1 0.15 0  4.15 0.15 0  4.2 0.15 0  4.25 0.15 0  4.3 0.15 0  4.35 0.15 0  4.4 0.15 0  4.45 0.15 0  4.5 0.15 0  4.55 0.15 0  4.6 0.15 0  4.65 0.15 0  4.7 0.15 0  4.75 0.15 0  4.8 0.15 0  4.85 0.15 0  4.9 0.15 0  4.95 0.15 0  5 0.15 0  0 0.18 0  0.05 0.18 0  0.1 0.18 0  0.15 0.18 0  0.2 0.18 0  0.25 0.18 0  0.3 0.18 0  0.35 0.18 0  0.4 0.18 0  0.45 0.18 0  0.5 0.18 0  0.55 0.18 0  0.6 0.18 0  0.65 0.18 0  0.7 0.18 0  0.75 0.18 0  0.8 0.18 0  0.85 0.18 0  0.9 0.18 0  0.95 0.18 0  1 0.18 0  1.05 0.18 0  1.1 0.18 0  1.15 0.18 0  1.2 0.18 0  1.25 0.18 0  1.3 0.18 0  1.35 0.18 0  1.4 0.18 0  1.45 0.18 0  1.5 0.18 0  1.55 0.18 0  1.6 0.18 0  1.65 0.18 0  1.7 0.18 0  1.75 0.18 0  1.8 0.18 0  1.85 0.18 0  1.9 0.18 0  1.95 0.18 0  2 0.18 0  2.05 0.18 0  2.1 0.18 0  2.15 0.18 0  2.2 0.18 0  2.25 0.18 0  2.3 0.18 0  2.35 0.18 0  2.4 0.18 0  2.45 0.18 0  2.5 0.18 0  2.55 0.18 0  2.6 0.18 0  2.65 0.18 0  2.7 0.18 0  2.75 0.18 0  2.8 0.18 0  2.85 0.18 0  2.9 0.18 0  2.95 0.18 0  3 0.18 0  3.05 0.18 0  3.1 0.18 0  3.15 0.18 0  3.2 0.18 0  3.25 0.18 0  3.3 0.18 0  3.35 0.18 0  3.4 0.18 0  3.45 0.18 0  3.5 0.18 0  3.55 0.18 0  3.6 0.18 0  3.65 0.18 0  3.7 0.18 0  3.75 0.18 0  3.8 0.18 0  3.85 0.18 0  3.9 0.18 0  3.95 0.18 0  4 0.18 0  4.05 0.18 0  4.1 0.18 0  4.15 0.18 0  4.2 0.18 0  4.25 0.18 0  4.3 0.18 0  4.35 0.18 0  4.4 0.18 0  4.45 0.18 0  4.5 0.18 0  4.55 0.18 0  4.6 0.18 0  4.65 0.18 0  4.7 0.18 0  4.75 0.18 0  4.8 0.18 0  4.85 0.18 0  4.9 0.18 0  4.95 0.18 0  5 0.18 0  0 0.21 0  0.05 0.21 0  0.1 0.21 0  0.15 0.21 0  0.2 0.21 0  0.25 0.21 0  0.3 0.21 0  0.35 0.21 0  0.4 0.21 0  0.45 0.21 0  0.5 0.21 0  0.55 0.21 0  0.6 0.21 0  0.65 0.21 0  0.7 0.21 0  0.75 0.21 0  0.8 0.21 0  0.85 0.21 0  0.9 0.21 0  0.95 0.21 0  1 0.21 0  1.05 0.21 0  1.1 0.21 0  1.15 0.21 0  1.2 0.21 0  1.25 0.21 0  1.3 0.21 0  1.35 0.21 0  1.4 0.21 0  1.45 0.21 0  1.5 0.21 0  1.55 0.21 0  1.6 0.21 0  1.65 0.21 0  1.7 0.21 0  1.75 0.21 0  1.8 0.21 0  1.85 0.21 0  1.9 0.21 0  1.95 0.21 0  2 0.21 0  2.05 0.21 0  2.1 0.21 0  2.15 0.21 0  2.2 0.21 0  2.25 0.21 0  2.3 0.21 0  2.35 0.21 0  2.4 0.21 0  2.45 0.21 0  2.5 0.21 0  2.55 0.21 0  2.6 0.21 0  2.65 0.21 0  2.7 0.21 0  2.75 0.21 0  2.8 0.21 0  2.85 0.21 0  2.9 0.21 0  2.95 0.21 0  3 0.21 0  3.05 0.21 0  3.1 0.21 0  3.15 0.21 0  3.2 0.21 0  3.25 0.21 0  3.3 0.21 0  3.35 0.21 0  3.4 0.21 0  3.45 0.21 0  3.5 0.21 0  3.55 0.21 0  3.6 0.21 0  3.65 0.21 0  3.7 0.21 0  3.75 0.21 0  3.8 0.21 0  3.85 0.21 0  3.9 0.21 0  3.95 0.21 0  4 0.21 0  4.05 0.21 0  4.1 0.21 0  4.15 0.21 0  4.2 0.21 0  4.25 0.21 0  4.3 0.21 0  4.35 0.21 0  4.4 0.21 0  4.45 0.21 0  4.5 0.21 0  4.55 0.21 0  4.6 0.21 0  4.65 0.21 0  4.7 0.21 0  4.75 0.21 0  4.8 0.21 0  4.85 0.21 0  4.9 0.21 0  4.95 0.21 0  5 0.21 0  0 0.24 0  0.05 0.24 0  0.1 0.24 0  0.15 0.24 0  0.2 0.24 0  0.25 0.24 0  0.3 0.24 0
[...]
<PointData  Scalars="Temperature increase"> 
<DataArray  type="Float64"  Name="Temperature increase"  format="ascii">0.0000000000000000e+00  5.0000000000000000e+01  5.0000000000000000e+01  5.0000000000000000e+01  5.0000000000000000e+01  5.0000000000000000e+01  5.0000000000000000e+01  5.0000000000000000e+01  5.0000000000000000e+01  5.0000000000000000e+01  5.0000000000000000e+01  5.0000000000000000e+01  5.0000000000000000e+01  5.0000000000000000e+01  5.0000000000000000e+01  5.0000000000000000e+01  5.0000000000000000e+01  5.0000000000000000e+01  5.0000000000000000e+01  5.0000000000000000e+01  5.0000000000000000e+01  5.0000000000000000e+01  5.0000000000000007e+01  5.0000000000000007e+01  5.0000000000000000e+01  5.0000000000000000e+01  5.0000000000000000e+01  5.0000000000000007e+01  5.0000000000000007e+01  5.0000000000000000e+01  5.0000000000000000e+01  5.0000000000000000e+01  5.0000000000000007e+01  5.0000000000000007e+01  5.0000000000000000e+01  5.0000000000000000e+01  5.0000000000000000e+01  5.0000000000000007e+01  5.0000000000000007e+01  5.0000000000000000e+01  5.0000000000000000e+01  5.0000000000000000e+01  5.0000000000000000e+01  5.0000000000000000e+01  5.0000000000000000e+01  5.0000000000000000e+01  5.0000000000000000e+01  5.0000000000000000e+01  5.0000000000000000e+01  5.0000000000000000e+01  5.0000000000000000e+01  5.0000000000000000e+01  5.0000000000000000e+01  5.0000000000000000e+01  5.0000000000000000e+01  5.0000000000000000e+01  5.0000000000000000e+01  5.0000000000000000e+01  5.0000000000000000e+01  5.0000000000000000e+01  5.0000000000000000e+01  5.0000000000000000e+01  5.0000000000000000e+01  5.0000000000000000e+01  5.0000000000000000e+01  5.0000000000000000e+01  5.0000000000000000e+01  5.0000000000000000e+01  5.0000000000000000e+01  5.0000000000000000e+01  5.0000000000000000e+01  5.0000000000000000e+01  5.0000000000000000e+01  5.0000000000000000e+01  5.0000000000000000e+01  5.0000000000000000e+01  5.0000000000000000e+01  5.0000000000000000e+01  5.0000000000000000e+01  5.0000000000000000e+01  5.0000000000000000e+01  5.0000000000000000e+01  5.0000000000000000e+01  5.0000000000000000e+01  5.0000000000000000e+01  5.0000000000000000e+01  5.0000000000000000e+01  5.0000000000000000e+01  5.0000000000000000e+01  5.0000000000000000e+01  5.0000000000000000e+01  5.0000000000000000e+01  5.0000000000000000e+01  5.0000000000000000e+01  5.0000000000000000e+01  5.0000000000000000e+01  5.0000000000000000e+01  5.0000000000000000e+01  5.0000000000000000e+01  5.0000000000000000e+01  0.0000000000000000e+00  0.0000000000000000e+00  2.9653339303906790e+01  3.9684796624587470e+01  4.2386580357875857e+01  4.3602914000387557e+01  4.4217972523274028e+01  4.4552003567648441e+01  4.4740063367382270e+01  4.4848100696690715e+01  4.4910875088318129e+01  4.4947586502337053e+01  4.4969135476852621e+01  4.4981811207187739e+01  4.4989276510901419e+01  4.4993676229423748e+01  4.4996270265797293e+01  4.4997800038444389e+01  4.4998702305041547e+01  4.4999234505994757e+01  4.4999548437725878e+01  4.4999733622621797e+01  4.4999842862722133e+01  4.4999907303706145e+01  4.4999945317767356e+01  4.4999967742513796e+01  4.4999980971040614e+01  4.4999988774655094e+01  4.4999993378072389e+01  4.4999996093667505e+01  4.4999997695620429e+01  4.4999998640626401e+01  4.4999999198093647e+01  4.4999999526948415e+01  4.4999999720942732e+01  4.4999999835381658e+01  4.4999999902890195e+01  4.4999999942714098e+01  4.4999999966206495e+01  4.4999999980064885e+01  4.4999999988240027e+01  4.4999999993062609e+01  4.4999999995907388e+01  4.4999999997585419e+01  4.4999999998575042e+01  4.4999999999158440e+01  4.4999999999501917e+01  4.4999999999703391e+01  4.4999999999820304e+01  4.4999999999885972e+01  4.4999999999919112e+01  4.4999999999929237e+01  4.4999999999919112e+01  4.4999999999885979e+01  4.4999999999820297e+01  4.4999999999703377e+01  4.4999999999501902e+01  4.4999999999158440e+01  4.4999999998575042e+01  4.4999999997585384e+01  4.4999999995907352e+01  4.4999999993062588e+01  4.4999999988240056e+01  4.4999999980064892e+01  4.4999999966206524e+01  4.4999999942714076e+01  4.4999999902890231e+01  4.4999999835381708e+01  4.4999999720942768e+01  4.4999999526948457e+01  4.4999999198093647e+01  4.4999998640626430e+01  4.4999997695620472e+01  4.4999996093667527e+01  4.4999993378072425e+01  4.4999988774655094e+01  4.4999980971040642e+01  4.4999967742513853e+01  4.4999945317767391e+01  4.4999907303706166e+01  4.4999842862722119e+01  4.4999733622621783e+01  4.4999548437725885e+01  4.4999234505994750e+01  4.4998702305041576e+01  4.4997800038444396e+01  4.4996270265797300e+01  4.4993676229423777e+01  4.4989276510901384e+01  4.4981811207187725e+01  4.4969135476852578e+01  4.4947586502336996e+01  4.4910875088318051e+01  4.4848100696690615e+01  4.4740063367382234e+01  4.4552003567648342e+01  4.4217972523273929e+01  4.3602914000387493e+01  4.2386580357875822e+01  3.9684796624587413e+01  2.9653339303906701e+01  0.0000000000000000e+00  0.0000000000000000e+00  1.9699183465005422e+01  3.0574442121026532e+01  3.5224669011731493e+01  3.7393723583823203e+01  3.8528248269705514e+01  3.9152874875662768e+01  3.9507217272954563e+01  3.9711617971531723e+01  3.9830657967775387e+01  3.9900365425272270e+01  3.9941313048603881e+01  3.9965409907141222e+01  3.9979605093717936e+01  3.9987972279051867e+01  3.9992905896378147e+01  3.9995815516592565e+01  3.9997531668672941e+01  3.9998543954418295e+01  3.9999141081079358e+01  3.9999493321323570e+01  3.9999701107543878e+01  3.9999823681309422e+01  3.9999895988259347e+01  3.9999938642630916e+01  3.9999963804773714e+01  3.9999978648126969e+01  3.9999987404345816e+01  3.9999992569714244e+01  3.9999995616809684e+01  3.9999997414317782e+01  3.9999998474683473e+01  3.9999999100202437e+01  3.9999999469201548e+01  3.9999999686877338e+01  3.9999999815286202e+01  3.9999999891035721e+01  3.9999999935720950e+01  3.9999999962081176e+01  3.9999999977631219e+01  3.9999999986804283e+01  3.9999999992215379e+01  3.9999999995407151e+01  3.9999999997289557e+01  3.9999999998399240e+01  3.9999999999052577e+01  3.9999999999435815e+01  3.9999999999658193e+01  3.9999999999783093e+01  3.9999999999846146e+01  3.9999999999865345e+01  3.9999999999846153e+01  3.9999999999783100e+01  3.9999999999658193e+01  3.9999999999435772e+01  3.9999999999052555e+01  3.9999999998399240e+01  3.9999999997289564e+01  3.9999999995407130e+01  3.9999999992215308e+01  3.9999999986804255e+01  3.9999999977631234e+01  3.9999999962081169e+01  3.9999999935720986e+01  3.9999999891035692e+01  3.9999999815286223e+01  3.9999999686877395e+01  3.9999999469201597e+01  3.9999999100202487e+01  3.9999998474683480e+01  3.9999997414317825e+01  3.9999995616809727e+01  3.9999992569714294e+01  3.9999987404345866e+01  3.9999978648126962e+01  3.9999963804773735e+01  3.9999938642630973e+01  3.9999895988259389e+01  3.9999823681309458e+01  3.9999701107543856e+01  3.9999493321323577e+01  3.9999141081079358e+01  3.9998543954418302e+01  3.9997531668673005e+01  3.9995815516592572e+01  3.9992905896378161e+01  3.9987972279051881e+01  3.9979605093717900e+01  3.9965409907141186e+01  3.9941313048603810e+01  3.9900365425272163e+01  3.9830657967775267e+01  3.9711617971531581e+01  3.9507217272954485e+01  3.9152874875662647e+01  3.8528248269705394e+01  3.7393723583823132e+01  3.5224669011731450e+01  3.0574442121026443e+01  1.9699183465005326e+01  0.0000000000000000e+00  0.0000000000000000e+00  1.4014796124650868e+01  2.3573297748015200e+01  2.8786711222046449e+01  3.1518927080459999e+01  3.3007104438046170e+01  3.3844647742904947e+01  3.4325245380318464e+01  3.4604245677467297e+01  3.4767313517897570e+01  3.4862997160112712e+01  3.4919269034643278e+01  3.4952405923988032e+01  3.4971933925518321e+01  3.4983446988951627e+01  3.4990236387995800e+01  3.4994240750210352e+01  3.4996602700198878e+01  3.4997995947785441e+01  3.4998817807171044e+01  3.4999302619216159e+01  3.4999588610701949e+01  3.4999757318437950e+01  3.4999856840220744e+01  3.4999915548860379e+01  3.4999950181556372e+01  3.4999970611671834e+01  3.4999982663570627e+01  3.4999989773089489e+01  3.4999993967056284e+01  3.4999996441113815e+01  3.4999997900581945e+01  3.4999998761534911e+01  3.4999999269418616e+01  3.4999999569023657e+01  3.4999999745763269e+01  3.4999999850023528e+01  3.4999999911527496e+01  3.4999999947809229e+01  3.4999999969212034e+01  3.4999999981837625e+01  3.4999999989285364e+01  3.4999999993678465e+01  3.4999999996269388e+01  3.4999999997796735e+01  3.4999999998695962e+01  3.4999999999223448e+01  3.4999999999529514e+01  3.4999999999701437e+01  3.4999999999788223e+01  3.4999999999814648e+01  3.4999999999788244e+01  3.4999999999701437e+01  3.4999999999529514e+01  3.4999999999223419e+01  3.4999999998695948e+01  3.4999999997796735e+01  3.4999999996269374e+01  3.4999999993678458e+01  3.4999999989285307e+01  3.4999999981837590e+01  3.4999999969212013e+01  3.4999999947809194e+01  3.4999999911527496e+01  3.4999999850023507e+01  3.4999999745763262e+01  3.4999999569023686e+01  3.4999999269418652e+01  3.4999998761534954e+01  3.4999997900581931e+01  3.4999996441113822e+01  3.4999993967056312e+01  3.4999989773089510e+01  3.4999982663570663e+01  3.4999970611671849e+01  3.4999950181556379e+01  3.4999915548860429e+01  3.4999856840220765e+01  3.4999757318437965e+01  3.4999588610701920e+01  3.4999302619216174e+01  3.4998817807171065e+01  3.4997995947785476e+01  3.4996602700198927e+01  3.4994240750210359e+01  3.4990236387995793e+01  3.4983446988951620e+01  3.4971933925518286e+01  3.4952405923987989e+01  3.4919269034643207e+01  3.4862997160112599e+01  3.4767313517897449e+01  3.4604245677467162e+01  3.4325245380318350e+01  3.3844647742904854e+01  3.3007104438046063e+01  3.1518927080459935e+01  2.8786711222046424e+01  2.3573297748015094e+01  1.4014796124650788e+01  0.0000000000000000e+00  0.0000000000000000e+00  1.0338643903112649e+01  1.8212334798794277e+01  2.3174118278593387e+01  2.6053892348066960e+01  2.7704190415787469e+01  2.8657226984926496e+01  2.9211915636669350e+01  2.9536485974293146e+01  2.9727040886274366e+01  2.9839139311765180e+01  2.9905161209901504e+01  2.9944072169802098e+01  2.9967013912187088e+01  2.9980543325776949e+01  2.9988523050681660e+01  2.9993229888394573e+01  2.9996006333524505e+01  2.9997644128803337e+01  2.9998610260303433e+01  2.9999180183550557e+01  2.9999516384171017e+01  2.9999714711151942e+01  2.9999831705734312e+01  2.9999900721781362e+01  2.9999941434924050e+01  2.9999965451953955e+01  2.9999979619806922e+01  2.9999987977546301e+01  2.9999992907849560e+01  2.9999995816278449e+01  2.9999997531986072e+01  2.9999998544096972e+01  2.9999999141150056e+01  2.9999999493356928e+01  2.9999999701126804e+01  2.9999999823692065e+01  2.9999999895994335e+01  2.9999999938646045e+01  2.9999999963806587e+01  2.9999999978648852e+01  2.9999999987404173e+01  2.9999999992568569e+01  2.9999999995614374e+01  2.9999999997409905e+01  2.9999999998467011e+01  2.9999999999087084e+01  2.9999999999446896e+01  2.9999999999648995e+01  2.9999999999751040e+01  2.9999999999782112e+01  2.9999999999751051e+01  2.9999999999649010e+01  2.9999999999446889e+01  2.9999999999087070e+01  2.9999999998467000e+01  2.9999999997409905e+01  2.9999999995614367e+01  2.9999999992568554e+01  2.9999999987404124e+01  2.9999999978648805e+01  2.9999999963806548e+01  2.9999999938646020e+01  2.9999999895994321e+01  2.9999999823692050e+01  2.9999999701126796e+01  2.9999999493356928e+01  2.9999999141150099e+01  2.9999998544097011e+01  2.9999997531986079e+01  2.9999995816278460e+01  2.9999992907849563e+01  2.9999987977546322e+01  2.9999979619806933e+01  2.9999965451953955e+01  2.9999941434924061e+01  2.9999900721781373e+01  2.9999831705734341e+01  2.9999714711151945e+01  2.9999516384170995e+01  2.9999180183550529e+01  2.9998610260303462e+01  2.9997644128803355e+01  2.9996006333524520e+01  2.9993229888394559e+01  2.9988523050681632e+01  2.9980543325776924e+01  2.9967013912187042e+01  2.9944072169802038e+01  2.9905161209901404e+01  2.9839139311765063e+01  2.9727040886274242e+01  2.9536485974293008e+01  2.9211915636669218e+01  2.8657226984926403e+01  2.7704190415787384e+01  2.6053892348066899e+01  2.3174118278593347e+01  1.8212334798794167e+01  1.0338643903112580e+01  0.0000000000000000e+00  0.0000000000000000e+00  7.7167638541330712e+00  1.3978215665964299e+01  1.8298839932579707e+01  2.1008459407560533e+01  2.2638515784241875e+01  2.3605711150465471e+01  2.4177275918431420e+01  2.4514628267080806e+01  2.4713667852160697e+01  2.4831088883810160e+01  2.4900357625229852e+01  2.4941220050038801e+01  2.4965325185766194e+01  2.4979545022329184e+01  2.4987933429438939e+01  2.4992881824392576e+01  2.4995800925912608e+01  2.4997522929449694e+01  2.4998538754406074e+01  2.4999137998437213e+01  2.4999491497735011e+01  2.4999700030064133e+01  2.4999823045109881e+01  2.4999895612761868e+01  2.4999938421054757e+01  2.4999963674041361e+01  2.4999978570999115e+01  2.4999987358844859e+01  2.4999992542871976e+01  2.4999995600974916e+01  2.4999997404976614e+01  2.4999998469172983e+01  2.4999999096951729e+01  2.4999999467283935e+01  2.4999999685746111e+01  2.4999999814618860e+01  2.4999999890641970e+01  2.4999999935488631e+01  2.4999999961943981e+01  2.4999999977550068e+01  2.4999999986755956e+01  2.4999999992186137e+01  2.4999999995388670e+01  2.4999999997276600e+01  2.4999999998388112e+01  2.4999999999040103e+01  2.4999999999418431e+01  2.4999999999630941e+01  2.4999999999738229e+01  2.4999999999770882e+01  2.4999999999738240e+01  2.4999999999630944e+01  2.4999999999418417e+01  2.4999999999040092e+01  2.4999999998388109e+01  2.4999999997276607e+01  2.4999999995388674e+01  2.4999999992186112e+01  2.4999999986755910e+01  2.4999999977550011e+01  2.4999999961943949e+01  2.4999999935488596e+01  2.4999999890641945e+01  2.4999999814618842e+01  2.4999999685746111e+01  2.4999999467283946e+01  2.4999999096951772e+01  2.4999998469173015e+01  2.4999997404976618e+01  2.4999995600974927e+01  2.4999992542871990e+01  2.4999987358844876e+01  2.4999978570999119e+01  2.4999963674041346e+01  2.4999938421054765e+01  2.4999895612761875e+01  2.4999823045109910e+01  2.4999700030064140e+01  2.4999491497734986e+01  2.4999137998437188e+01  2.4998538754406066e+01  2.4997522929449694e+01  2.4995800925912594e+01  2.4992881824392548e+01  2.4987933429438883e+01  2.4979545022329138e+01  2.4965325185766144e+01  2.4941220050038726e+01  2.4900357625229756e+01  2.4831088883810057e+01  2.4713667852160579e+01  2.4514628267080681e+01  2.4177275918431295e+01  2.3605711150465385e+01  2.2638515784241790e+01  2.1008459407560473e+01  1.8298839932579675e+01  1.3978215665964209e+01  7.7167638541330117e+00  0.0000000000000000e+00  0.0000000000000000e+00  5.6947766856027986e+00  1.0496937910382083e+01  1.4010860513729469e+01  1.6341622931339185e+01  1.7801830748824987e+01  1.8690286088894876e+01  1.9223100164447512e+01  1.9540269519603257e+01  1.9728320744734425e+01  1.9839572246833665e+01  1.9905307657617321e+01  1.9944121708242964e+01  1.9967030669408675e+01  1.9980548994192588e+01  1.9988524968119805e+01  1.9993230537000692e+01  1.9996006552926598e+01  1.9997644203019838e+01  1.9998610285408450e+01  1.9999180192042743e+01  1.9999516387043649e+01  1.9999714712123662e+01  1.9999831706063016e+01  1.9999900721892544e+01  1.9999941434961670e+01  1.9999965451966684e+01  1.9999979619811224e+01  1.9999987977547757e+01  1.9999992907850039e+01  1.9999995816278613e+01  1.9999997531986121e+01  1.9999998544097004e+01  1.9999999141150067e+01  1.9999999493356910e+01  1.9999999701126789e+01  1.9999999823692050e+01  1.9999999895994335e+01  1.9999999938646031e+01  1.9999999963806573e+01  1.9999999978648837e+01  1.9999999987404163e+01  1.9999999992568576e+01  1.9999999995614374e+01  1.9999999997409894e+01  1.9999999998466997e+01  1.9999999999087084e+01  1.9999999999446896e+01  1.9999999999649010e+01  1.9999999999751047e+01  1.9999999999782105e+01  1.9999999999751047e+01  1.9999999999649010e+01  1.9999999999446896e+01  1.9999999999087084e+01  1.9999999998467004e+01  1.9999999997409901e+01  1.9999999995614370e+01  1.9999999992568558e+01  1.9999999987404124e+01  1.9999999978648795e+01  1.9999999963806541e+01  1.9999999938646010e+01  1.9999999895994318e+01  1.9999999823692036e+01  1.9999999701126793e+01  1.9999999493356928e+01  1.9999999141150109e+01  1.9999998544097036e+01  1.9999997531986132e+01  1.9999995816278627e+01  1.9999992907850054e+01  1.9999987977547779e+01  1.9999979619811231e+01  1.9999965451966681e+01  1.9999941434961677e+01  1.9999900721892548e+01  1.9999831706063048e+01  1.9999714712123662e+01  1.9999516387043627e+01  1.9999180192042726e+01  1.9998610285408443e+01  1.9997644203019824e+01  1.9996006552926573e+01  1.9993230537000660e+01  1.9988524968119751e+01  1.9980548994192549e+01  1.9967030669408629e+01  1.9944121708242911e+01  1.9905307657617250e+01  1.9839572246833580e+01  1.9728320744734333e+01  1.9540269519603161e+01  1.9223100164447413e+01  1.8690286088894808e+01  1.7801830748824912e+01  1.6341622931339131e+01  1.4010860513729440e+01  1.0496937910382018e+01  5.6947766856027551e+00  0.0000000000000000e+00  0.0000000000000000e+00  4.0314774608349584e+00  7.5133514666425363e+00  1.0160014550524600e+01  1.1985504473508195e+01  1.3165222633686062e+01  1.3898143741206084e+01  1.4343343161151548e+01  1.4610367610531052e+01  1.4769384377569061e+01  1.4863697663918261e+01  1.4919505992057251e+01  1.4952486078869883e+01  1.4971961039272593e+01  1.4983456160640793e+01  1.4990239490475879e+01  1.4994241799677106e+01  1.4996603055198902e+01  1.4997996067870256e+01  1.4998817847791798e+01  1.4999302632956825e+01  1.4999588615349937e+01  1.4999757320010220e+01  1.4999856840752585e+01  1.4999915549040297e+01  1.4999950181617233e+01  1.4999970611692412e+01  1.4999982663577594e+01  1.4999989773091839e+01  1.4999993967057083e+01  1.4999996441114087e+01  1.4999997900582018e+01  1.4999998761534947e+01  1.4999999269418609e+01  1.4999999569023636e+01  1.4999999745763260e+01  1.4999999850023496e+01  1.4999999911527498e+01  1.4999999947809195e+01  1.4999999969212020e+01  1.4999999981837609e+01  1.4999999989285332e+01  1.4999999993678447e+01  1.4999999996269363e+01  1.4999999997796717e+01  1.4999999998695950e+01  1.4999999999223425e+01  1.4999999999529502e+01  1.4999999999701426e+01  1.4999999999788219e+01  1.4999999999814646e+01  1.4999999999788225e+01  1.4999999999701432e+01  1.4999999999529500e+01  1.4999999999223425e+01  1.4999999998695955e+01  1.4999999997796726e+01  1.4999999996269359e+01  1.4999999993678429e+01  1.4999999989285303e+01  1.4999999981837581e+01  1.4999999969212000e+01  1.4999999947809181e+01  1.4999999911527480e+01  1.4999999850023480e+01  1.4999999745763258e+01  1.4999999569023657e+01  1.4999999269418643e+01  1.4999998761534968e+01  1.4999997900582029e+01  1.4999996441114099e+01  1.4999993967057103e+01  1.4999989773091855e+01  1.4999982663577601e+01  1.4999970611692405e+01  1.4999950181617237e+01  1.4999915549040312e+01  1.4999856840752607e+01  1.4999757320010227e+01  1.4999588615349930e+01  1.4999302632956814e+01  1.4998817847791790e+01  1.4997996067870254e+01  1.4996603055198888e+01  1.4994241799677086e+01  1.4990239490475837e+01  1.4983456160640769e+01  1.4971961039272566e+01  1.4952486078869846e+01  1.4919505992057202e+01  1.4863697663918202e+01  1.4769384377569001e+01  1.4610367610530989e+01  1.4343343161151484e+01  1.3898143741206027e+01  1.3165222633686001e+01  1.1985504473508158e+01  1.0160014550524579e+01  7.5133514666424901e+00  4.0314774608349291e+00  0.0000000000000000e+00  0.0000000000000000e+00  2.5852709135417089e+00  4.8508007680596297e+00  6.6143837927263727e+00  7.8623520490798224e+00  8.6864596223425536e+00  9.2063834215961684e+00  9.5253155775589136e+00  9.7177399816126542e+00  9.8327288303558760e+00  9.9010659295522476e+00  9.9415500060337454e+00  9.9654900620260136e+00  9.9796322074722994e+00  9.9879814507410849e+00  9.9929089988582511e+00  9.9958165660593217e+00  9.9975320236729797e+00  9.9985440745031156e+00  9.9991411217001165e+00  9.999493335