<?xml version="1.0"?>
<VTKFile type="UnstructuredGrid"  version="0.1"  >
<UnstructuredGrid>
<Piece  NumberOfPoints="2601" NumberOfCells="5000">
<Points>
<DataArray  type="Float64"  NumberOfComponents="3"  format="ascii">0 0 0  0.02 0 0  0.04 0 0  0.06 0 0  0.08 0 0  0.1 0 0  0.12 0 0  0.14 0 0  0.16 0 0  0.18 0 0  0.2 0 0  0.22 0 0  0.24 0 0  0.26 0 0  0.28 0 0  0.3 0 0  0.32 0 0  0.34 0 0  0.36 0 0  0.38 0 0  0.4 0 0  0.42 0 0  0.44 0 0  0.46 0 0  0.48 0 0  0.5 0 0  0.52 0 0  0.54 0 0  0.5600000000000001 0 0  0.58 0 0  0.6 0 0  0.62 0 0  0.64 0 0  0.66 0 0  0.68 0 0  0.7 0 0  0.72 0 0  0.74 0 0  0.76 0 0  0.78 0 0  0.8 0 0  0.82 0 0  0.84 0 0  0.86 0 0  0.88 0 0  0.9 0 0  0.92 0 0  0.9399999999999999 0 0  0.96 0 0  0.98 0 0  1 0 0  0 0.02 0  0.02 0.02 0  0.04 0.02 0  0.06 0.02 0  0.08 0.02 0  0.1 0.02 0  0.12 0.02 0  0.14 0.02 0  0.16 0.02 0  0.18 0.02 0  0.2 0.02 0  0.22 0.02 0  0.24 0.02 0  0.26 0.02 0  0.28 0.02 0  0.3 0.02 0  0.32 0.02 0  0.34 0.02 0  0.36 0.02 0  0.38 0.02 0  0.4 0.02 0  0.42 0.02 0  0.44 0.02 0  0.46 0.02 0  0.48 0.02 0  0.5 0.02 0  0.52 0.02 0  0.54 0.02 0  0.5600000000000001 0.02 0  0.58 0.02 0  0.6 0.02 0  0.62 0.02 0  0.64 0.02 0  0.66 0.02 0  0.68 0.02 0  0.7 0.02 0  0.72 0.02 0  0.74 0.02 0  0.76 0.02 0  0.78 0.02 0  0.8 0.02 0  0.82 0.02 0  0.84 0.02 0  0.86 0.02 0  0.88 0.02 0  0.9 0.02 0  0.92 0.02 0  0.9399999999999999 0.02 0  0.96 0.02 0  0.98 0.02 0  1 0.02 0  0 0.04 0  0.02 0.04 0  0.04 0.04 0  0.06 0.04 0  0.08 0.04 0  0.1 0.04 0  0.12 0.04 0  0.14 0.04 0  0.16 0.04 0  0.18 0.04 0  0.2 0.04 0  0.22 0.04 0  0.24 0.04 0  0.26 0.04 0  0.28 0.04 0  0.3 0.04 0  0.32 0.04 0  0.34 0.04 0  0.36 0.04 0  0.38 0.04 0  0.4 0.04 0  0.42 0.04 0  0.44 0.04 0  0.46 0.04 0  0.48 0.04 0  0.5 0.04 0  0.52 0.04 0  0.54 0.04 0  0.5600000000000001 0.04 0  0.58 0.04 0  0.6 0.04 0  0.62 0.04 0  0.64 0.04 0  0.66 0.04 0  0.68 0.04 0  0.7 0.04 0  0.72 0.04 0  0.74 0.04 0  0.76 0.04 0  0.78 0.04 0  0.8 0.04 0  0.82 0.04 0  0.84 0.04 0  0.86 0.04 0  0.88 0.04 0  0.9 0.04 0  0.92 0.04 0  0.9399999999999999 0.04 0  0.96 0.04 0  0.98 0.04 0  1 0.04 0  0 0.06 0  0.02 0.06 0  0.04 0.06 0  0.06 0.06 0  0.08 0.06 0  0.1 0.06 0  0.12 0.06 0  0.14 0.06 0  0.16 0.06 0  0.18 0.06 0  0.2 0.06 0  0.22 0.06 0  0.24 0.06 0  0.26 0.06 0  0.28 0.06 0  0.3 0.06 0  0.32 0.06 0  0.34 0.06 0  0.36 0.06 0  0.38 0.06 0  0.4 0.06 0  0.42 0.06 0  0.44 0.06 0  0.46 0.06 0  0.48 0.06 0  0.5 0.06 0  0.52 0.06 0  0.54 0.06 0  0.5600000000000001 0.06 0  0.58 0.06 0  0.6 0.06 0  0.62 0.06 0  0.64 0.06 0  0.66 0.06 0  0.68 0.06 0  0.7 0.06 0  0.72 0.06 0  0.74 0.06 0  0.76 0.06 0  0.78 0.06 0  0.8 0.06 0  0.82 0.06 0  0.84 0.06 0  0.86 0.06 0  0.88 0.06 0  0.9 0.06 0  0.92 0.06 0  0.9399999999999999 0.06 0  0.96 0.06 0  0.98 0.06 0  1 0.06 0  0 0.08 0  0.02 0.08 0  0.04 0.08 0  0.06 0.08 0  0.08 0.08 0  0.1 0.08 0  0.12 0.08 0  0.14 0.08 0  0.16 0.08 0  0.18 0.08 0  0.2 0.08 0  0.22 0.08 0  0.24 0.08 0  0.26 0.08 0  0.28 0.08 0  0.3 0.08 0  0.32 0.08 0  0.34 0.08 0  0.36 0.08 0  0.38 0.08 0  0.4 0.08 0  0.42 0.08 0  0.44 0.08 0  0.46 0.08 0  0.48 0.08 0  0.5 0.08 0  0.52 0.08 0  0.54 0.08 0  0.5600000000000001 0.08 0  0.58 0.08 0  0.6 0.08 0  0.62 0.08 0  0.64 0.08 0  0.66 0.08 0  0.68 0.08 0  0.7 0.08 0  0.72 0.08 0  0.74 0.08 0  0.76 0.08 0  0.78 0.08 0  0.8 0.08 0  0.82 0.08 0  0.84 0.08 0  0.86 0.08 0  0.88 0.08 0  0.9 0.08 0  0.92 0.08 0  0.9399999999999999 0.08 0  0.96 0.08 0  0.98 0.08 0  1 0.08 0  0 0.1 0  0.02 0.1 0  0.04 0.1 0  0.06 0.1 0  0.08 0.1 0  0.1 0.1 0  0.12 0.1 0  0.14 0.1 0  0.16 0.1 0  0.18 0.1 0  0.2 0.1 0  0.22 0.1 0  0.24 0.1 0  0.26 0.1 0  0.28 0.1 0  0.3 0.1 0  0.32 0.1 0  0.34 0.1 0  0.36 0.1 0  0.38 0.1 0  0.4 0.1 0  0.42 0.1 0  0.44 0.1 0  0.46 0.1 0  0.48 0.1 0  0.5 0.1 0  0.52 0.1 0  0.54 0.1 0  0.5600000000000001 0.1 0  0.58 0.1 0  0.6 0.1 0  0.62 0.1 0  0.64 0.1 0  0.66 0.1 0  0.68 0.1 0  0.7 0.1 0  0.72 0.1 0  0.74 0.1 0  0.76 0.1 0  0.78 0.1 0  0.8 0.1 0  0.82 0.1 0  0.84 0.1 0  0.86 0.1 0  0.88 0.1 0  0.9 0.1 0  0.92 0.1 0  0.9399999999999999 0.1 0  0.96 0.1 0  0.98 0.1 0  1 0.1 0  0 0.12 0  0.02 0.12 0  0.04 0.12 0  0.06 0.12 0  0.08 0.12 0  0.1 0.12 0  0.12 0.12 0  0.14 0.12 0  0.16 0.12 0  0.18 0.12 0  0.2 0.12 0  0.22 0.12 0  0.24 0.12 0  0.26 0.12 0  0.28 0.12 0  0.3 0.12 0  0.32 0.12 0  0.34 0.12 0  0.36 0.12 0  0.38 0.12 0  0.4 0.12 0  0.42 0.12 0  0.44 0.12 0  0.46 0.12 0  0.48 0.12 0  0.5 0.12 0  0.52 0.12 0  0.54 0.12 0  0.5600000000000001 0.12 0  0.58 0.12 0  0.6 0.12 0  0.62 0.12 0  0.64 0.12 0  0.66 0.12 0  0.68 0.12 0  0.7 0.12 0  0.72 0.12 0  0.74 0.12 0  0.76 0.12 0  0.78 0.12 0  0.8 0.12 0  0.82 0.12 0  0.84 0.12 0  0.86 0.12 0  0.88 0.12 0  0.9 0.12 0  0.92 0.12 0  0.9399999999999999 0.12 0  0.96 0.12 0  0.98 0.12 0  1 0.12 0  0 0.14 0  0.02 0.14 0  0.04 0.14 0  0.06 0.14 0  0.08 0.14 0  0.1 0.14 0  0.12 0.14 0  0.14 0.14 0  0.16 0.14 0  0.18 0.14 0  0.2 0.14 0  0.22 0.14 0  0.24 0.14 0  0.26 0.14 0  0.28 0.14 0  0.3 0.14 0  0.32 0.14 0  0.34 0.14 0  0.36 0.14 0  0.38 0.14 0  0.4 0.14 0  0.42 0.14 0  0.44 0.14 0  0.46 0.14 0  0.48 0.14 0  0.5 0.14 0  0.52 0.14 0  0.54 0.14 0  0.5600000000000001 0.14 0  0.58 0.14 0  0.6 0.14 0  0.62 0.14 0  0.64 0.14 0  0.66 0.14 0  0.68 0.14 0  0.7 0.14 0  0.72 0.14 0  0.74 0.14 0  0.76 0.14 0  0.78 0.14 0  0.8 0.14 0  0.82 0.14 0  0.84 0.14 0  0.86 0.14 0  0.88 0.14 0  0.9 0.14 0  0.92 0.14 0  0.9399999999999999 0.14 0  0.96 0.14 0  0.98 0.14 0  1 0.14 0  0 0.16 0  0.02 0.16 0  0.04 0.16 0  0.06 0.16 0  0.08 0.16 0  0.1 0.16 0  0.12 0.16 0  0.14 0.16 0  0.16 0.16 0  0.18 0.16 0  0.2 0.16 0  0.22 0.16 0  0.24 0.16 0  0.26 0.16 0  0.28 0.16 0  0.3 0.16 0  0.32 0.16 0  0.34 0.16 0  0.36 0.16 0  0.38 0.16 0  0.4 0.16 0  0.42 0.16 0  0.44 0.16 0  0.46 0.16 0  0.48 0.16 0  0.5 0.16 0  0.52 0.16 0  0.54 0.16 0  0.5600000000000001 0.16 0  0.58 0.16 0  0.6 0.16 0  0.62 0.16 0  0.64 0.16 0  0.66 0.16 0  0.68 0.16 0  0.7 0.16 0  0.72 0.16 0  0.74 0.16 0  0.76 0.16 0  0.78 0.16 0  0.8 0.16 0  0.82 0.16 0  0.84 0.16 0  0.86 0.16 0  0.88 0.16 0  0.9 0.16 0  0.92 0.16 0  0.9399999999999999 0.16 0  0.96 0.16 0  0.98 0.16 0  1 0.16 0  0 0.18 0  0.02 0.18 0  0.04 0.18 0  0.06 0.18 0  0.08 0.18 0  0.1 0.18 0  0.12 0.18 0  0.14 0.18 0  0.16 0.18 0  0.18 0.18 0  0.2 0.18 0  0.22 0.18 0  0.24 0.18 0  0.26 0.18 0  0.28 0.18 0  0.3 0.18 0  0.32 0.18 0  0.34 0.18 0  0.36 0.18 0  0.38 0.18 0  0.4 0.18 0  0.42 0.18 0  0.44 0.18 0  0.46 0.18 0  0.48 0.18 0  0.5 0.18 0  0.52 0.18 0  0.54 0.18 0  0.5600000000000001 0.18 0  0.58 0.18 0  0.6 0.18 0  0.62 0.18 0  0.64 0.18 0  0.66 0.18 0  0.68 0.18 0  0.7 0.18 0  0.72 0.18 0  0.74 0.18 0  0.76 0.18 0  0.78 0.18 0  0.8 0.18 0  0.82 0.18 0  0.84 0.18 0  0.86 0.18 0  0.88 0.18 0  0.9 0.18 0  0.92 0.18 0  0.9399999999999999 0.18 0  0.96 0.18 0  0.98 0.18 0  1 0.18 0  0 0.2 0  0.02 0.2 0  0.04 0.2 0  0.06 0.2 0  0.08 0.2 0  0.1 0.2 0  0.12 0.2 0  0.14 0.2 0  0.16 0.2 0  0.18 0.2 0  0.2 0.2 0  0.22 0.2 0  0.24 0.2 0  0.26 0.2 0  0.28 0.2 0  0.3 0.2 0  0.32 0.2 0  0.34 0.2 0  0.36 0.2 0  0.38 0.2 0  0.4 0.2 0  0.42 0.2 0  0.44 0.2 0  0.46 0.2 0  0.48 0.2 0  0.5 0.2 0  0.52 0.2 0  0.54 0.2 0  0.5600000000000001 0.2 0  0.58 0.2 0  0.6 0.2 0  0.62 0.2 0  0.64 0.2 0  0.66 0.2 0  0.68 0.2 0  0.7 0.2 0  0.72 0.2 0  0.74 0.2 0  0.76 0.2 0  0.78 0.2 0  0.8 0.2 0  0.82 0.2 0  0.84 0.2 0  0.86 0.2 0  0.88 0.2 0  0.9 0.2 0  0.92 0.2 0  0.9399999999999999 0.2 0  0.96 0.2 0  0.98 0.2 0  1 0.2 0  0 0.22 0  0.02 0.22 0  0.04 0.22 0  0.06 0.22 0  0.08 0.22 0  0.1 0.22 0  0.12 0.22 0  0.14 0.22 0  0.16 0.22 0  0.18 0.22 0  0.2 0.22 0  0.22 0.22 0  0.24 0.22 0  0.26 0.22 0  0.28 0.22 0  0.3 0.22 0  0.32 0.22 0  0.34 0.22 0  0.36 0.22 0  0.38 0.22 0  0.4 0.22 0  0.42 0.22 0  0.44 0.22 0  0.46 0.22 0  0.48 0.22 0  0.5 0.22 0  0.52 0.22 0  0.54 0.22 0  0.5600000000000001 0.22 0  0.58 0.22 0  0.6 0.22 0  0.62 0.22 0  0.64 0.22 0  0.66 0.22 0  0.68 0.22 0  0.7 0.22 0  0.72 0.22 0  0.74 0.22 0  0.76 0.22 0  0.78 0.22 0  0.8 0.22 0  0.82 0.22 0  0.84 0.22 0  0.86 0.22 0  0.88 0.22 0  0.9 0.22 0  0.92 0.22 0  0.9399999999999999 0.22 0  0.96 0.22 0  0.98 0.22 0  1 0.22 0  0 0.24 0  0.02 0.24 0  0.04 0.24 0  0.06 0.24 0  0.08 0.24 0  0.1 0.24 0  0.12 0.24 0  0.14 0.24 0  0.16 0.24 0  0.18 0.24 0  0.2 0.24 0  0.22 0.24 0  0.24 0.24 0  0.26 0.24 0  0.28 0.24 0  0.3 0.24 0  0.32 0.24 0  0.34 0.24 0  0.36 0.24 0  0.38 0.24 0  0.4 0.24 0  0.42 0.24 0  0.44 0.24 0  0.46 0.24 0  0.48 0.24 0  0.5 0.24 0  0.52 0.24 0  0.54 0.24 0  0.5600000000000001 0.24 0  0.58 0.24 0  0.6 0.24 0  0.62 0.24 0  0.64 0.24 0  0.66 0.24 0  0.68 0.24 0  0.7 0.24 0  0.72 0.24 0  0.74 0.24 0  0.76 0.24 0  0.78 0.24 0  0.8 0.24 0  0.82 0.24 0  0.84 0.24 0  0.86 0.24 0  0.88 0.24 0  0.9 0.24 0  0.92 0.24 0  0.9399999999999999 0.24 0  0.96 0.24 0  0.98 0.24 0  1 0.24 0  0 0.26 0  0.02 0.26 0  0.04 0.26 0  0.06 0.26 0  0.08 0.26 0  0.1 0.26 0  0.12 0.26 0  0.14 0.26 0  0.16 0.26 0  0.18 0.26 0  0.2 0.26 0  0.22 0.26 0  0.24 0.26 0  0.26 0.26 0  0.28 0.26 0  0.3 0.26 0  0.32 0.26 0  0.34 0.26 0  0.36 0.26 0  0.38 0.26 0  0.4 0.26 0  0.42 0.26 0  0.44 0.26 0  0.46 0.26 0  0.48 0.26 0  0.5 0.26 0  0.52 0.26 0  0.54 0.26 0  0.5600000000000001 0.26 0  0.58 0.26 0  0.6 0.26 0  0.62 0.26 0  0.64 0.26 0  0.66 0.26 0  0.68 0.26 0  0.7 0.26 0  0.72 0.26 0  0.74 0.26 0  0.76 0.26 0  0.78 0.26 0  0.8 0.26 0  0.82 0.26 0  0.84 0.26 0  0.86 0.26 0  0.88 0.26 0  0.9 0.26 0  0.92 0.26 0  0.9399999999999999 0.26 0  0.96 0.26 0  0.98 0.26 0  1 0.26 0  0 0.28 0  0.02 0.28 0  0.04 0.28 0  0.06 0.28 0  0.08 0.28 0  0.1 0.28 0  0.12 0.28 0  0.14 0.28 0  0.16 0.28 0  0.18 0.28 0  0.2 0.28 0  0.22 0.28 0  0.24 0.28 0  0.26 0.28 0  0.28 0.28 0  0.3 0.28 0  0.32 0.28 0  0.34 0.28 0  0.36 0.28 0  0.38 0.28 0  0.4 0.28 0  0.42 0.28 0  0.44 0.28 0  0.46 0.28 0  0.48 0.28 0  0.5 0.28 0  0.52 0.28 0  0.54 0.28 0  0.5600000000000001 0.28 0  0.58 0.28 0  0.6 0.28 0  0.62 0.28 0  0.64 0.28 0  0.66 0.28 0  0.68 0.28 0  0.7 0.28 0  0.72 0.28 0  0.74 0.28 0  0.76 0.28 0  0.78 0.28 0  0.8 0.28 0  0.82 0.28 0  0.84 0.28 0  0.86 0.28
[...]
<PointData  Scalars="f_6"> 
<DataArray  type="Float64"  Name="f_6"  format="ascii">-8.2793550618852196e-03  -4.4094192954456872e-02  -7.5724322595935201e-02  -1.0457004902020850e-01  -1.3134603109128887e-01  -1.5637768413866171e-01  -1.7983350246691945e-01  -2.0179991204923878e-01  -2.2231338915395202e-01  -2.4137757839240584e-01  -2.5897399578800401e-01  -2.7506967049960174e-01  -2.8962317842258362e-01  -3.0258970832868848e-01  -3.1392540976119065e-01  -3.2359107088673211e-01  -3.3155507713304350e-01  -3.3779557326106630e-01  -3.4230177671162526e-01  -3.4507445791442998e-01  -3.4612570075946425e-01  -3.4547816130141629e-01  -3.4316411923664070e-01  -3.3922463365485656e-01  -3.3370907241584591e-01  -3.2667520226633412e-01  -3.1818990571468991e-01  -3.0833042685050449e-01  -2.9718588057792628e-01  -2.8485865191811338e-01  -2.7146528767061617e-01  -2.5713653340103115e-01  -2.4201628911285902e-01  -2.2625943014379615e-01  -2.1002862176911302e-01  -1.9349040116043534e-01  -1.7681088610588155e-01  -1.6015149479060414e-01  -1.4366503447326592e-01  -1.2749245484898244e-01  -1.1176048472680968e-01  -9.6580301013285019e-02  -8.2047340823929310e-02  -6.8242390755650084e-02  -5.5234224664516850e-02  -4.3084438810606272e-02  -3.1856104903732259e-02  -2.1630035246289800e-02  -1.2548997120808147e-02  -4.8095105256789816e-03  -1.9628214271698077e-05  -1.2174203661026856e-02  -3.9399214498845973e-02  -6.7460488392213233e-02  -9.3464859517373461e-02  -1.1770261657400305e-01  -1.4040318033214316e-01  -1.6169532152770622e-01  -1.8164954926537599e-01  -2.0029685460647323e-01  -2.1764104769070058e-01  -2.3366722552397820e-01  -2.4834817059638747e-01  -2.6164958727078430e-01  -2.7353459180134249e-01  -2.8396760187972764e-01  -2.9291762026695123e-01  -3.0036083060336299e-01  -3.0628240452218147e-01  -3.1067744914401357e-01  -3.1355109641171985e-01  -3.1491784214911617e-01  -3.1480036952013302e-01  -3.1322819349426384e-01  -3.1023648354671429e-01  -3.0586536683912680e-01  -3.0015993392289958e-01  -2.9317106140521948e-01  -2.8495698158508309e-01  -2.7558531016664817e-01  -2.6513511122621719e-01  -2.5369854965444455e-01  -2.4138171668235325e-01  -2.2830432713463897e-01  -2.1459817956629101e-01  -2.0040448041013542e-01  -1.8587029732789623e-01  -1.7114450335822026e-01  -1.5637360588664240e-01  -1.4169783215983778e-01  -1.2724778005521412e-01  -1.1314185951506353e-01  -9.9484668501891443e-02  -8.6366387810393561e-02  -7.3863260611128648e-02  -6.2039269602960585e-02  -5.0949286165777437e-02  -4.0644286094260067e-02  -3.1179028938329752e-02  -2.2627984457085946e-02  -1.4959440067613509e-02  -8.0959743037987055e-03  -1.9201929281350675e-02  -4.3291963831351810e-02  -6.9881430988973689e-02  -9.5296147778070231e-02  -1.1917883676541989e-01  -1.4164814042552901e-01  -1.6277696646157142e-01  -1.8260947934812966e-01  -2.0116332331877021e-01  -2.1843532023147852e-01  -2.3440707681387934e-01  -2.4905006900044230e-01  -2.6233029598357077e-01  -2.7421255117550408e-01  -2.8466426200830375e-01  -2.9365876916920075e-01  -3.0117786850976203e-01  -3.0721343659877365e-01  -3.1176800798632237e-01  -3.1485426957104379e-01  -3.1649357282506252e-01  -3.1671377003656331e-01  -3.1554689038753952e-01  -3.1302718949399966e-01  -3.0918995640966423e-01  -3.0407136789665756e-01  -2.9770965015481970e-01  -2.9014753910915281e-01  -2.8143556798986935e-01  -2.7163554096752401e-01  -2.6082358807374423e-01  -2.4909219317895964e-01  -2.3655069922377853e-01  -2.2332410635760766e-01  -2.0955031123921306e-01  -1.9537615254040760e-01  -1.8095273564431064e-01  -1.6643054256811451e-01  -1.5195479673753204e-01  -1.3766145818452633e-01  -1.2367410317064854e-01  -1.1010182094507233e-01  -9.7038158479267597e-02  -8.4561069503697600e-02  -7.2733770286119923e-02  -6.1606341901015528e-02  -5.1217638171047755e-02  -4.1594961773238334e-02  -3.2756296630507574e-02  -2.4448492827984752e-02  -1.6111543128316825e-02  -2.6903125120986252e-02  -4.8312703753260883e-02  -7.3320810409826992e-02  -9.7714277277346412e-02  -1.2083792288938695e-01  -1.4272130755967263e-01  -1.6337945468642404e-01  -1.8282252743892349e-01  -2.0104769835988900e-01  -2.1803895935969198e-01  -2.3376968209733848e-01  -2.4820617108629983e-01  -2.6131162670515795e-01  -2.7305020198467311e-01  -2.8339088059599177e-01  -2.9231087770471376e-01  -2.9979823941638284e-01  -3.0585332498160472e-01  -3.1048892939285605e-01  -3.1372894969811060e-01  -3.1560560286757600e-01  -3.1615556278067358e-01  -3.1541592534556201e-01  -3.1342099301705489e-01  -3.1020025385596933e-01  -3.0577775684619862e-01  -3.0017362205645898e-01  -2.9340806368246219e-01  -2.8550682842942759e-01  -2.7650685036497213e-01  -2.6646158309479578e-01  -2.5544498752761363e-01  -2.4355321548953163e-01  -2.3090371225878431e-01  -2.1763206939238178e-01  -2.0388721135343779e-01  -1.8982557273318831e-01  -1.7560496737704270e-01  -1.6137878982508014e-01  -1.4729102800639060e-01  -1.3347237614741278e-01  -1.2003755352009755e-01  -1.0708377912969388e-01  -9.4690226955235476e-02  -8.2918166296224810e-02  -7.1811325318976049e-02  -6.1395557493439605e-02  -5.1674477751013151e-02  -4.2633306057741620e-02  -3.3881660453015515e-02  -2.4470269066684126e-02  -3.5200170288892246e-02  -5.4353450847234155e-02  -7.7990511631539222e-02  -1.0140692226265470e-01  -1.2375193458344988e-01  -1.4501652695350289e-01  -1.6517546727392032e-01  -1.8420955277806644e-01  -2.0209485293714780e-01  -2.1879997319768552e-01  -2.3428683048152080e-01  -2.4851322547678981e-01  -2.6143645106322955e-01  -2.7301743566373260e-01  -2.8322497885812059e-01  -2.9203960194105305e-01  -2.9945650479462887e-01  -3.0548705391447711e-01  -3.1015843412048877e-01  -3.1351133806577430e-01  -3.1559536834565011e-01  -3.1646221832362198e-01  -3.1615850498022358e-01  -3.1472091358766996e-01  -3.1217309923874992e-01  -3.0852368479418102e-01  -3.0376751820779962e-01  -2.9789285868640458e-01  -2.9089070059441224e-01  -2.8276305959324061e-01  -2.7353217493615484e-01  -2.6324779985432056e-01  -2.5199059763127368e-01  -2.3987127502544806e-01  -2.2702649602214767e-01  -2.1361252526694233e-01  -1.9979743703063110e-01  -1.8575295149020449e-01  -1.7164683704019726e-01  -1.5763649922373099e-01  -1.4386408792106536e-01  -1.3045317823600627e-01  -1.1750686304983211e-01  -1.0510694252730127e-01  -9.3313772084155366e-02  -8.2166201531650232e-02  -7.1680712552638137e-02  -6.1846661239729629e-02  -5.2638076130139419e-02  -4.3564910820141405e-02  -3.3289731245661154e-02  -4.4071381347480898e-02  -6.1237972520824177e-02  -8.3660529509113638e-02  -1.0616511635750932e-01  -1.2774660356152578e-01  -1.4838461617384577e-01  -1.6802989454779282e-01  -1.8664099479921087e-01  -2.0417475095320523e-01  -2.2058345426170528e-01  -2.3581519622543115e-01  -2.4981623104864586e-01  -2.6253477155263327e-01  -2.7392571018753331e-01  -2.8395573913653138e-01  -2.9260817681508261e-01  -2.9988684718088732e-01  -3.0581785176216114e-01  -3.1044886824738999e-01  -3.1384549345298296e-01  -3.1608465724302753e-01  -3.1724444140278846e-01  -3.1738770790181153e-01  -3.1655688157304590e-01  -3.1477150506502555e-01  -3.1202154768240392e-01  -3.0826458591541422e-01  -3.0344120396250307e-01  -2.9749573508171900e-01  -2.9037835253484817e-01  -2.8206651327067334e-01  -2.7257747017186856e-01  -2.6197319686903131e-01  -2.5035888566899739e-01  -2.3787692227635843e-01  -2.2469825974146546e-01  -2.1101127486038110e-01  -1.9701041248034160e-01  -1.8288595478115388e-01  -1.6881564127024462e-01  -1.5495854321367258e-01  -1.4145113456041705e-01  -1.2840521481089473e-01  -1.1590720067206459e-01  -1.0401822803237600e-01  -9.2774480197911222e-02  -8.2187011845970215e-02  -7.2238167560627217e-02  -6.2901905352559670e-02  -5.3601864482790543e-02  -4.2604132851495016e-02  -5.3508462859799551e-02  -6.8875052244853643e-02  -9.0198115532403839e-02  -1.1185658176485262e-01  -1.3270856660422448e-01  -1.5273420443942501e-01  -1.7187022260506749e-01  -1.9005864495956973e-01  -2.0723911211628837e-01  -2.2334704107708694e-01  -2.3831441728208214e-01  -2.5207262224926474e-01  -2.6455701654092023e-01  -2.7571286599241440e-01  -2.8550210520740116e-01  -2.9390981000180844e-01  -3.0095001267198024e-01  -3.0666691212021852e-01  -3.1113946430861317e-01  -3.1446781362847470e-01  -3.1677090461038415e-01  -3.1818002604344586e-01  -3.1878158441127491e-01  -3.1863512597472393e-01  -3.1773857781538373e-01  -3.1607597345893984e-01  -3.1355505199714118e-01  -3.1002974586697002e-01  -3.0538870478965779e-01  -2.9949701395245598e-01  -2.9227764745487483e-01  -2.8369524639874688e-01  -2.7379262120013481e-01  -2.6267138236569670e-01  -2.5048648493429598e-01  -2.3743472321739204e-01  -2.2373719945245249e-01  -2.0962333420855986e-01  -1.9531688179307166e-01  -1.8102486417159322e-01  -1.6693007434845700e-01  -1.5318672522450902e-01  -1.3991857175693820e-01  -1.2721879848708395e-01  -1.1515096635731005e-01  -1.0375039638394036e-01  -9.3025345020980837e-02  -8.2954959292632538e-02  -7.3517127424467324e-02  -6.4054086017479583e-02  -5.2432716394011168e-02  -6.3506151414398707e-02  -7.7210654055509920e-02  -9.7518368724741247e-02  -1.1838765551421521e-01  -1.3854958052212335e-01  -1.5798893073451742e-01  -1.7663341617599551e-01  -1.9441178676839582e-01  -2.1124747223002213e-01  -2.2705785582926569e-01  -2.4175587695084966e-01  -2.5525377038548058e-01  -2.6746898006613468e-01  -2.7833187309621171e-01  -2.8779518869497944e-01  -2.9584169462942445e-01  -3.0249761472520104e-01  -3.0783236300598610e-01  -3.1199170950466987e-01  -3.1509971582008317e-01  -3.1726145330834493e-01  -3.1897785591821248e-01  -3.2026821839177738e-01  -3.2084004709957803e-01  -3.2088246561274175e-01  -3.2053424766489375e-01  -3.1952217558514734e-01  -3.1749147012479739e-01  -3.1467652265277374e-01  -3.1042524988464187e-01  -3.0442946058099696e-01  -2.9696445384605180e-01  -2.8783716884079935e-01  -2.7720676415953605e-01  -2.6524001129445535e-01  -2.5218056799130872e-01  -2.3829930596479965e-01  -2.2387783378659190e-01  -2.0918822046555771e-01  -1.9447813308541231e-01  -1.7996224131963678e-01  -1.6581792070821375e-01  -1.5218415513679795e-01  -1.3916267772884505e-01  -1.2682042469341584e-01  -1.1519255747062770e-01  -1.0428537675425459e-01  -9.4075801567742159e-02  -8.4545759523686662e-02  -7.4958548124182497e-02  -6.2785506619123119e-02  -7.4057866756715107e-02  -8.6207874784222316e-02  -1.0556276804491983e-01  -1.2569058031157346e-01  -1.4520263748651316e-01  -1.6408900363645043e-01  -1.8227023853092938e-01  -1.9966295350807228e-01  -2.1617397419872111e-01  -2.3170039530950265e-01  -2.4613195994257839e-01  -2.5935587072832605e-01  -2.7126425805746590e-01  -2.8176413962084490e-01  -2.9079068944241160e-01  -2.9832165118237441e-01  -3.0442409481620974e-01  -3.0906141949151722e-01  -3.1291786407331368e-01  -3.1576929895372663e-01  -3.1718376798426673e-01  -3.1897978734889121e-01  -3.2107177690280947e-01  -3.2225461036071262e-01  -3.2309465914026603e-01  -3.2343311658872648e-01  -3.2340344744029398e-01  -3.2316224743054678e-01  -3.2252866236210914e-01  -3.2189794328116389e-01  -3.1912873118371321e-01  -3.1265841230216967e-01  -3.0466705532171950e-01  -2.9448226309314107e-01  -2.8263045455165514e-01  -2.6938512513886448e-01  -2.5509091799121514e-01  -2.4010990095609508e-01  -2.2478217142079290e-01  -2.0940984613597416e-01  -1.9424878922278246e-01  -1.7950514323321573e-01  -1.6533585437885051e-01  -1.5185198753740384e-01  -1.3912351862123587e-01  -1.2718461514055421e-01  -1.1603862181938104e-01  -1.0565904995488679e-01  -9.6029816432506604e-02  -8.6337172971479387e-02  -7.3665503190223178e-02  -8.5153398377218581e-02  -9.5837278630653153e-02  -1.1428727553489139e-01  -1.3371431954357946e-01  -1.5261688762408876e-01  -1.7098954113750350e-01  -1.8874590316554893e-01  -2.0579015695238423e-01  -2.2201093995939489e-01  -2.3728159954458569e-01  -2.5146296534122825e-01  -2.6440884644550405e-01  -2.7597488514684460e-01  -2.8603219327330320e-01  -2.9450745625448066e-01  -3.0126641666071868e-01  -3.0680426443881487e-01  -3.1083905876267498e-01  -3.1329679935397892e-01  -3.1683997289754201e-01  -3.1916748798973194e-01  -3.2100768363020749e-01  -3.2279299899942782e-01  -3.2409343980905286e-01  -3.2502144881867556e-01  -3.2559552125170105e-01  -3.2586021813428073e-01  -3.2584829301217849e-01  -3.2556867447490517e-01  -3.2505514945404435e-01  -3.2445731226649971e-01  -3.2331917179755620e-01  -3.2282226427363575e-01  -3.1520142448040617e-01  -3.0333695444427849e-01  -2.8961273824738509e-01  -2.7458610225258573e-01  -2.5871058127310914e-01  -2.4241541611351153e-01  -2.2607282943893070e-01  -2.0999003195465143e-01  -1.9440705143552939e-01  -1.7950011914250610e-01  -1.6538857910908786e-01  -1.5214316192089616e-01  -1.3979426683741966e-01  -1.2833939082401274e-01  -1.1774569473984561e-01  -1.0799561331711105e-01  -9.8200124661474278e-02  -8.5068840785246083e-02  -9.6777334702874140e-02  -1.0607158906205977e-01  -1.2365538485803415e-01  -1.4241832458865003e-01  -1.6075332888398508e-01  -1.7865836689563974e-01  -1.9603972033506822e-01  -2.1278817399085459e-01  -2.2877185240862172e-01  -2.4383589504388209e-01  -2.5780479606070889e-01  -2.7048782455333381e-01  -2.8168932544195385e-01  -2.9126105800544294e-01  -2.9893053547927306e-01  -3.0534390658402077e-01  -3.0932806813754166e-01  -3.1334852779176564e-01  -3.1613187348784666e-01  -3.1907362730946948e-01  -3.2149577440547633e-01  -3.2354179367403713e-01  -3.2523862745280951e-01  -3.2659046941874420e-01  -3.2761718373205062e-01  -3.2833809121801671e-01  -3.2877976230027023e-01  -3.2897175095651859e-01  -3.2894001848464394e-01  -3.2871105134229117e-01  -3.2831275301110691e-01  -3.2779360153175280e-01  -3.2715017018574033e-01  -3.2645124162197758e-01  -3.2576470647523209e-01  -3.1350075506836317e-01  -2.9733779957804490e-01  -2.8012767247578768e-01  -2.6243678383786756e-01  -2.4473301455845142e-01  -2.2738621168735240e-01  -2.1067392737158278e-01  -1.9479012953554603e-01  -1.7985834272454970e-01  -1.6594498303367036e-01  -1.5307148582752239e-01  -1.4122456009595322e-01  -1.3036042677927942e-01  -1.2045539459567334e-01  -1.1054682056184624e-01  -9.6984359602854717e-02  -1.0890781819296444e-01  -1.1688231512808635e-01  -1.3363358017986973e-01  -1.5176798039929179e-01  -1.6958102112880791e-01  -1.8707334816792803e-01  -2.0414366949969098e-01  -2.2066846657707512e-01  -2.3649294323382095e-01  -2.5142918171936951e-01  -2.6525705161421753e-01  -2.7772654674399427e-01  -2.8857313576203575e-01  -2.9761107301724432e-01  -3.0487037953689688e-01  -3.0966322748391606e-01  -3.1306243001761352e-01  -3.1648315557587192e-01  -3.1952358672358705e-01  -3.2220753992810108e-01  -3.2454809750856495e-01  -3.2654603895955830e-01  -3.2822371373772330e-01  -3.2959830747448132e-01  -3.3068947838607471e-01  -3.3151715973577561e-01  -3.3210415123316211e-01  -3.3247512110176403e-01  -3.3265498990505599e-01  -3.3266959725029033e-01  -3.3254695279992735e-01  -3.3231708264428805e-01  -3.3200992974434268e-01  -3.3165606057225527e-01  -3.3129399657751907e-01  -3.3094074897308079e-01  -3.2425580061335396e-01  -3.0487684448814517e-01  -2.8521950158253156e-01  -2.6565804074016552e-01  -2.4662582188385287e-01  -2.2843735287200029e-01  -2.1129735727287355e-01  -1.9532472819370444e-01  -1.8057271408509856e-01  -1.6704561312573210e-01  -1.5471211903664922e-01  -1.4351125025136910e-01  -1.3340743036974792e-01  -1.2336583332448653e-01  -1.0939293209327963e-01  -1.2151548607963038e-01  -1.2823729794639493e-01  -1.4418796332583425e-01  -1.6173087831959995e-01  -1.7907345187742399e-01  -1.9621914685405303e-01  -2.1305973706819747e-01  -2.2945739364864282e-01  -2.4523281206622541e-01  -2.6016217010308001e-01  -2.7396929537882597e-01  -2.8632004568322822e-01  -2.9690345405208879e-01  -3.0577377900076114e-01  -3.1035552612478129e-01  -3.1384120329050325e-01  -3.1741796091372909e-01  -3.2055387255010448e-01  -3.2338951275918049e-01  -3.2590455808082219e-01  -3.2811462045785750e-01  -3.3003175452608613e-01  -3.3167177357906708e-01  -3.3305105466624979e-01  -3.3418692812231066e-01  -3.3509804763326650e-01  -3.3580485820769723e-01  -3.3632929357566704e-01  -3.3669434842311591e-01  -3.3692413021576395e-01  -3.3704409963643522e-01  -3.3708083218822626e-01  -3.3706102256136644e-01  -3.3701098152789821e-01  -3.3695673481767663e-01  -3.3692171830421447e-01  -3.3697935197766221e-01  -3.3357351459185325e-01  -3.1117165717757861e-01  -2.8909357356037030e-01  -2.6786665902843892e-01  -2.4779536394629154e-01  -2.2908018142366710e-01  -2.1182031604118845e-01  -1.9604223994525391e-01  -1.8172142096335989e-01  -1.6879878668512827e-01  -1.5718817255655895e-01  -1.4683527625931603e-01  -1.3663425892312914e-01  -1.2226671574500828e-01  -1.3456256350568138e-01  -1.4009872873043319e-01  -1.5528142566447276e-01  -1.7227338484499807e-01  -1.8920469874016843e-01  -2.0608312607556675e-01  -2.2279572997125913e-01  -2.3919226565520643e-01  -2.5507041509254413e-01  -2.7016414117504256e-01  -2.8412527129271531e-01  -2.9649556743930439e-01  -3.0749292190128669e-01  -3.1206343033451606e-01  -3.1561601533253408e-01  -3.1911483903565213e-01  -3.2226807356995107e-01  -3.2514461573866082e-01  -3.2774313366059532e-01  -3.3007143312578585e-01  -3.3214065578436125e-01  -3.3396192508770006e-01  -3.3554825584139830e-01  -3.3691402230356920e-01  -3.3807490723408112e-01  -3.3904792742587186e-01  -3.3985152635209304e-01  -3.4050548139188741e-01  -3.4103075479207856e-01  -3.4144942497130976e-01  -3.4178463511771950e-01  -3.4206038635691138e-01  -3.4230120097742817e-01  -3.4253194703365752e-01  -3.4277810300905753e-01  -3.4306619480795147e-01  -3.4341978939804613e-01  -3.4397515163679776e-01  -3.4076592411971202e-01  -3.1527362744929166e-01  -2.9120900386937504e-01  -2.6879294732019238e-01  -2.4814966469965616e-01  -2.2933664085180158e-01  -2.1233457529615915e-01  -1.9707447350851429e-01  -1.8345708947542372e-01  -1.7136142734454674e-01  -1.6070665595512329e-01  -1.5031688411928890e-01  -1.3556844021840775e-01  -1.4800212607958568e-01  -1.5242144850449657e-01  -1.6687106349799480e-01  -1.8335720907850167e-01  -1.9994513289644697e-01  -2.1665011724026251e-01  -2.3335898712465991e-01  -2.4991394229694652e-01  -2.6609199948795764e-01  -2.8158611860968341e-01  -2.9589257779546435e-01  -3.0927101619112340e-01  -3.1502186563376700e-01  -3.1837157158906454e-01  -3.2171371463505938e-01  -3.2477472926026313e-01  -3.2759732088656479e-01  -3.3018308398288843e-01  -3.3253843410558126e-01  -3.3467020782252171e-01  -3.3658691899184745e-01  -3.3829825958396526e-01  -3.3981542286671274e-01  -3.4115099705999136e-01  -3.4231891163354511e-01  -3.4333441834644857e-01  -3.4421408392856717e-01  -3.4497573499915257e-01  -3.4563837029829170e-01  -3.4622207086695012e-01  -3.4674789297930914e-01  -3.4723770527189152e-01  -3.4771398959561295e-01  -3.4819968287807246e-01  -3.4871802839661370e-01  -3.4929205577652245e-01  -3.4994373287432545e-01  -3.5068771200660959e-01  -3.5161692686388890e-01  -3.4403081250204448e-01  -3.1670889253527224e-01  -2.9139989786956749e-01  -2.6845303900300810e-01  -2.4781282591625670e-01  -2.2938833147346252e-01  -2.1304631694457471e-01  -1.9863238932295338e-01  -1.8597967188844572e-01  -1.7497233384078473e-01  -1.6436539705283079e-01  -1.4925081932305528e-01  -1.6177757649515206e-01  -1.6515147979649894e-01  -1.7890573526527576e-01  -1.9493587023499415e-01  -2.1125659557650522e-01  -2.2789606210750504e-01  -2.4474831880904413e-01  -2.6165855986481623e-01  -2.7839253727379620e-01  -2.9458891057206948e-01  -3.1005977755526615e-01  -3.1945316464554901e-01  -3.2221801340586576e-01  -3.2533048637455253e-01  -3.2819010454451925e-01  -3.3086124484812091e-01  -3.3333947534851127e-01  -3.3562909014298420e-01  -3.3773407878805639e-01  -3.3965991607437490e-01  -3.4141336139160755e-01  -3.4300253137040942e-01  -3.4443692531273296e-01  -3.4572739990807427e-01  -3.4688614363065240e-01  -3.4792665006610402e-01  -3.4886368629899572e-01  -3.4971324126142245e-01  -3.5049245355128178e-01  -3.5121952352708002e-01  -3.5191360530167282e-01  -3.52594670463356