<?xml version="1.0"?>
<VTKFile type="UnstructuredGrid"  version="0.1"  >
<UnstructuredGrid>
<Piece  NumberOfPoints="2601" NumberOfCells="5000">
<Points>
<DataArray  type="Float64"  NumberOfComponents="3"  format="ascii">0 0 0  0.02 0 0  0.04 0 0  0.06 0 0  0.08 0 0  0.1 0 0  0.12 0 0  0.14 0 0  0.16 0 0  0.18 0 0  0.2 0 0  0.22 0 0  0.24 0 0  0.26 0 0  0.28 0 0  0.3 0 0  0.32 0 0  0.34 0 0  0.36 0 0  0.38 0 0  0.4 0 0  0.42 0 0  0.44 0 0  0.46 0 0  0.48 0 0  0.5 0 0  0.52 0 0  0.54 0 0  0.5600000000000001 0 0  0.58 0 0  0.6 0 0  0.62 0 0  0.64 0 0  0.66 0 0  0.68 0 0  0.7 0 0  0.72 0 0  0.74 0 0  0.76 0 0  0.78 0 0  0.8 0 0  0.82 0 0  0.84 0 0  0.86 0 0  0.88 0 0  0.9 0 0  0.92 0 0  0.9399999999999999 0 0  0.96 0 0  0.98 0 0  1 0 0  0 0.02 0  0.02 0.02 0  0.04 0.02 0  0.06 0.02 0  0.08 0.02 0  0.1 0.02 0  0.12 0.02 0  0.14 0.02 0  0.16 0.02 0  0.18 0.02 0  0.2 0.02 0  0.22 0.02 0  0.24 0.02 0  0.26 0.02 0  0.28 0.02 0  0.3 0.02 0  0.32 0.02 0  0.34 0.02 0  0.36 0.02 0  0.38 0.02 0  0.4 0.02 0  0.42 0.02 0  0.44 0.02 0  0.46 0.02 0  0.48 0.02 0  0.5 0.02 0  0.52 0.02 0  0.54 0.02 0  0.5600000000000001 0.02 0  0.58 0.02 0  0.6 0.02 0  0.62 0.02 0  0.64 0.02 0  0.66 0.02 0  0.68 0.02 0  0.7 0.02 0  0.72 0.02 0  0.74 0.02 0  0.76 0.02 0  0.78 0.02 0  0.8 0.02 0  0.82 0.02 0  0.84 0.02 0  0.86 0.02 0  0.88 0.02 0  0.9 0.02 0  0.92 0.02 0  0.9399999999999999 0.02 0  0.96 0.02 0  0.98 0.02 0  1 0.02 0  0 0.04 0  0.02 0.04 0  0.04 0.04 0  0.06 0.04 0  0.08 0.04 0  0.1 0.04 0  0.12 0.04 0  0.14 0.04 0  0.16 0.04 0  0.18 0.04 0  0.2 0.04 0  0.22 0.04 0  0.24 0.04 0  0.26 0.04 0  0.28 0.04 0  0.3 0.04 0  0.32 0.04 0  0.34 0.04 0  0.36 0.04 0  0.38 0.04 0  0.4 0.04 0  0.42 0.04 0  0.44 0.04 0  0.46 0.04 0  0.48 0.04 0  0.5 0.04 0  0.52 0.04 0  0.54 0.04 0  0.5600000000000001 0.04 0  0.58 0.04 0  0.6 0.04 0  0.62 0.04 0  0.64 0.04 0  0.66 0.04 0  0.68 0.04 0  0.7 0.04 0  0.72 0.04 0  0.74 0.04 0  0.76 0.04 0  0.78 0.04 0  0.8 0.04 0  0.82 0.04 0  0.84 0.04 0  0.86 0.04 0  0.88 0.04 0  0.9 0.04 0  0.92 0.04 0  0.9399999999999999 0.04 0  0.96 0.04 0  0.98 0.04 0  1 0.04 0  0 0.06 0  0.02 0.06 0  0.04 0.06 0  0.06 0.06 0  0.08 0.06 0  0.1 0.06 0  0.12 0.06 0  0.14 0.06 0  0.16 0.06 0  0.18 0.06 0  0.2 0.06 0  0.22 0.06 0  0.24 0.06 0  0.26 0.06 0  0.28 0.06 0  0.3 0.06 0  0.32 0.06 0  0.34 0.06 0  0.36 0.06 0  0.38 0.06 0  0.4 0.06 0  0.42 0.06 0  0.44 0.06 0  0.46 0.06 0  0.48 0.06 0  0.5 0.06 0  0.52 0.06 0  0.54 0.06 0  0.5600000000000001 0.06 0  0.58 0.06 0  0.6 0.06 0  0.62 0.06 0  0.64 0.06 0  0.66 0.06 0  0.68 0.06 0  0.7 0.06 0  0.72 0.06 0  0.74 0.06 0  0.76 0.06 0  0.78 0.06 0  0.8 0.06 0  0.82 0.06 0  0.84 0.06 0  0.86 0.06 0  0.88 0.06 0  0.9 0.06 0  0.92 0.06 0  0.9399999999999999 0.06 0  0.96 0.06 0  0.98 0.06 0  1 0.06 0  0 0.08 0  0.02 0.08 0  0.04 0.08 0  0.06 0.08 0  0.08 0.08 0  0.1 0.08 0  0.12 0.08 0  0.14 0.08 0  0.16 0.08 0  0.18 0.08 0  0.2 0.08 0  0.22 0.08 0  0.24 0.08 0  0.26 0.08 0  0.28 0.08 0  0.3 0.08 0  0.32 0.08 0  0.34 0.08 0  0.36 0.08 0  0.38 0.08 0  0.4 0.08 0  0.42 0.08 0  0.44 0.08 0  0.46 0.08 0  0.48 0.08 0  0.5 0.08 0  0.52 0.08 0  0.54 0.08 0  0.5600000000000001 0.08 0  0.58 0.08 0  0.6 0.08 0  0.62 0.08 0  0.64 0.08 0  0.66 0.08 0  0.68 0.08 0  0.7 0.08 0  0.72 0.08 0  0.74 0.08 0  0.76 0.08 0  0.78 0.08 0  0.8 0.08 0  0.82 0.08 0  0.84 0.08 0  0.86 0.08 0  0.88 0.08 0  0.9 0.08 0  0.92 0.08 0  0.9399999999999999 0.08 0  0.96 0.08 0  0.98 0.08 0  1 0.08 0  0 0.1 0  0.02 0.1 0  0.04 0.1 0  0.06 0.1 0  0.08 0.1 0  0.1 0.1 0  0.12 0.1 0  0.14 0.1 0  0.16 0.1 0  0.18 0.1 0  0.2 0.1 0  0.22 0.1 0  0.24 0.1 0  0.26 0.1 0  0.28 0.1 0  0.3 0.1 0  0.32 0.1 0  0.34 0.1 0  0.36 0.1 0  0.38 0.1 0  0.4 0.1 0  0.42 0.1 0  0.44 0.1 0  0.46 0.1 0  0.48 0.1 0  0.5 0.1 0  0.52 0.1 0  0.54 0.1 0  0.5600000000000001 0.1 0  0.58 0.1 0  0.6 0.1 0  0.62 0.1 0  0.64 0.1 0  0.66 0.1 0  0.68 0.1 0  0.7 0.1 0  0.72 0.1 0  0.74 0.1 0  0.76 0.1 0  0.78 0.1 0  0.8 0.1 0  0.82 0.1 0  0.84 0.1 0  0.86 0.1 0  0.88 0.1 0  0.9 0.1 0  0.92 0.1 0  0.9399999999999999 0.1 0  0.96 0.1 0  0.98 0.1 0  1 0.1 0  0 0.12 0  0.02 0.12 0  0.04 0.12 0  0.06 0.12 0  0.08 0.12 0  0.1 0.12 0  0.12 0.12 0  0.14 0.12 0  0.16 0.12 0  0.18 0.12 0  0.2 0.12 0  0.22 0.12 0  0.24 0.12 0  0.26 0.12 0  0.28 0.12 0  0.3 0.12 0  0.32 0.12 0  0.34 0.12 0  0.36 0.12 0  0.38 0.12 0  0.4 0.12 0  0.42 0.12 0  0.44 0.12 0  0.46 0.12 0  0.48 0.12 0  0.5 0.12 0  0.52 0.12 0  0.54 0.12 0  0.5600000000000001 0.12 0  0.58 0.12 0  0.6 0.12 0  0.62 0.12 0  0.64 0.12 0  0.66 0.12 0  0.68 0.12 0  0.7 0.12 0  0.72 0.12 0  0.74 0.12 0  0.76 0.12 0  0.78 0.12 0  0.8 0.12 0  0.82 0.12 0  0.84 0.12 0  0.86 0.12 0  0.88 0.12 0  0.9 0.12 0  0.92 0.12 0  0.9399999999999999 0.12 0  0.96 0.12 0  0.98 0.12 0  1 0.12 0  0 0.14 0  0.02 0.14 0  0.04 0.14 0  0.06 0.14 0  0.08 0.14 0  0.1 0.14 0  0.12 0.14 0  0.14 0.14 0  0.16 0.14 0  0.18 0.14 0  0.2 0.14 0  0.22 0.14 0  0.24 0.14 0  0.26 0.14 0  0.28 0.14 0  0.3 0.14 0  0.32 0.14 0  0.34 0.14 0  0.36 0.14 0  0.38 0.14 0  0.4 0.14 0  0.42 0.14 0  0.44 0.14 0  0.46 0.14 0  0.48 0.14 0  0.5 0.14 0  0.52 0.14 0  0.54 0.14 0  0.5600000000000001 0.14 0  0.58 0.14 0  0.6 0.14 0  0.62 0.14 0  0.64 0.14 0  0.66 0.14 0  0.68 0.14 0  0.7 0.14 0  0.72 0.14 0  0.74 0.14 0  0.76 0.14 0  0.78 0.14 0  0.8 0.14 0  0.82 0.14 0  0.84 0.14 0  0.86 0.14 0  0.88 0.14 0  0.9 0.14 0  0.92 0.14 0  0.9399999999999999 0.14 0  0.96 0.14 0  0.98 0.14 0  1 0.14 0  0 0.16 0  0.02 0.16 0  0.04 0.16 0  0.06 0.16 0  0.08 0.16 0  0.1 0.16 0  0.12 0.16 0  0.14 0.16 0  0.16 0.16 0  0.18 0.16 0  0.2 0.16 0  0.22 0.16 0  0.24 0.16 0  0.26 0.16 0  0.28 0.16 0  0.3 0.16 0  0.32 0.16 0  0.34 0.16 0  0.36 0.16 0  0.38 0.16 0  0.4 0.16 0  0.42 0.16 0  0.44 0.16 0  0.46 0.16 0  0.48 0.16 0  0.5 0.16 0  0.52 0.16 0  0.54 0.16 0  0.5600000000000001 0.16 0  0.58 0.16 0  0.6 0.16 0  0.62 0.16 0  0.64 0.16 0  0.66 0.16 0  0.68 0.16 0  0.7 0.16 0  0.72 0.16 0  0.74 0.16 0  0.76 0.16 0  0.78 0.16 0  0.8 0.16 0  0.82 0.16 0  0.84 0.16 0  0.86 0.16 0  0.88 0.16 0  0.9 0.16 0  0.92 0.16 0  0.9399999999999999 0.16 0  0.96 0.16 0  0.98 0.16 0  1 0.16 0  0 0.18 0  0.02 0.18 0  0.04 0.18 0  0.06 0.18 0  0.08 0.18 0  0.1 0.18 0  0.12 0.18 0  0.14 0.18 0  0.16 0.18 0  0.18 0.18 0  0.2 0.18 0  0.22 0.18 0  0.24 0.18 0  0.26 0.18 0  0.28 0.18 0  0.3 0.18 0  0.32 0.18 0  0.34 0.18 0  0.36 0.18 0  0.38 0.18 0  0.4 0.18 0  0.42 0.18 0  0.44 0.18 0  0.46 0.18 0  0.48 0.18 0  0.5 0.18 0  0.52 0.18 0  0.54 0.18 0  0.5600000000000001 0.18 0  0.58 0.18 0  0.6 0.18 0  0.62 0.18 0  0.64 0.18 0  0.66 0.18 0  0.68 0.18 0  0.7 0.18 0  0.72 0.18 0  0.74 0.18 0  0.76 0.18 0  0.78 0.18 0  0.8 0.18 0  0.82 0.18 0  0.84 0.18 0  0.86 0.18 0  0.88 0.18 0  0.9 0.18 0  0.92 0.18 0  0.9399999999999999 0.18 0  0.96 0.18 0  0.98 0.18 0  1 0.18 0  0 0.2 0  0.02 0.2 0  0.04 0.2 0  0.06 0.2 0  0.08 0.2 0  0.1 0.2 0  0.12 0.2 0  0.14 0.2 0  0.16 0.2 0  0.18 0.2 0  0.2 0.2 0  0.22 0.2 0  0.24 0.2 0  0.26 0.2 0  0.28 0.2 0  0.3 0.2 0  0.32 0.2 0  0.34 0.2 0  0.36 0.2 0  0.38 0.2 0  0.4 0.2 0  0.42 0.2 0  0.44 0.2 0  0.46 0.2 0  0.48 0.2 0  0.5 0.2 0  0.52 0.2 0  0.54 0.2 0  0.5600000000000001 0.2 0  0.58 0.2 0  0.6 0.2 0  0.62 0.2 0  0.64 0.2 0  0.66 0.2 0  0.68 0.2 0  0.7 0.2 0  0.72 0.2 0  0.74 0.2 0  0.76 0.2 0  0.78 0.2 0  0.8 0.2 0  0.82 0.2 0  0.84 0.2 0  0.86 0.2 0  0.88 0.2 0  0.9 0.2 0  0.92 0.2 0  0.9399999999999999 0.2 0  0.96 0.2 0  0.98 0.2 0  1 0.2 0  0 0.22 0  0.02 0.22 0  0.04 0.22 0  0.06 0.22 0  0.08 0.22 0  0.1 0.22 0  0.12 0.22 0  0.14 0.22 0  0.16 0.22 0  0.18 0.22 0  0.2 0.22 0  0.22 0.22 0  0.24 0.22 0  0.26 0.22 0  0.28 0.22 0  0.3 0.22 0  0.32 0.22 0  0.34 0.22 0  0.36 0.22 0  0.38 0.22 0  0.4 0.22 0  0.42 0.22 0  0.44 0.22 0  0.46 0.22 0  0.48 0.22 0  0.5 0.22 0  0.52 0.22 0  0.54 0.22 0  0.5600000000000001 0.22 0  0.58 0.22 0  0.6 0.22 0  0.62 0.22 0  0.64 0.22 0  0.66 0.22 0  0.68 0.22 0  0.7 0.22 0  0.72 0.22 0  0.74 0.22 0  0.76 0.22 0  0.78 0.22 0  0.8 0.22 0  0.82 0.22 0  0.84 0.22 0  0.86 0.22 0  0.88 0.22 0  0.9 0.22 0  0.92 0.22 0  0.9399999999999999 0.22 0  0.96 0.22 0  0.98 0.22 0  1 0.22 0  0 0.24 0  0.02 0.24 0  0.04 0.24 0  0.06 0.24 0  0.08 0.24 0  0.1 0.24 0  0.12 0.24 0  0.14 0.24 0  0.16 0.24 0  0.18 0.24 0  0.2 0.24 0  0.22 0.24 0  0.24 0.24 0  0.26 0.24 0  0.28 0.24 0  0.3 0.24 0  0.32 0.24 0  0.34 0.24 0  0.36 0.24 0  0.38 0.24 0  0.4 0.24 0  0.42 0.24 0  0.44 0.24 0  0.46 0.24 0  0.48 0.24 0  0.5 0.24 0  0.52 0.24 0  0.54 0.24 0  0.5600000000000001 0.24 0  0.58 0.24 0  0.6 0.24 0  0.62 0.24 0  0.64 0.24 0  0.66 0.24 0  0.68 0.24 0  0.7 0.24 0  0.72 0.24 0  0.74 0.24 0  0.76 0.24 0  0.78 0.24 0  0.8 0.24 0  0.82 0.24 0  0.84 0.24 0  0.86 0.24 0  0.88 0.24 0  0.9 0.24 0  0.92 0.24 0  0.9399999999999999 0.24 0  0.96 0.24 0  0.98 0.24 0  1 0.24 0  0 0.26 0  0.02 0.26 0  0.04 0.26 0  0.06 0.26 0  0.08 0.26 0  0.1 0.26 0  0.12 0.26 0  0.14 0.26 0  0.16 0.26 0  0.18 0.26 0  0.2 0.26 0  0.22 0.26 0  0.24 0.26 0  0.26 0.26 0  0.28 0.26 0  0.3 0.26 0  0.32 0.26 0  0.34 0.26 0  0.36 0.26 0  0.38 0.26 0  0.4 0.26 0  0.42 0.26 0  0.44 0.26 0  0.46 0.26 0  0.48 0.26 0  0.5 0.26 0  0.52 0.26 0  0.54 0.26 0  0.5600000000000001 0.26 0  0.58 0.26 0  0.6 0.26 0  0.62 0.26 0  0.64 0.26 0  0.66 0.26 0  0.68 0.26 0  0.7 0.26 0  0.72 0.26 0  0.74 0.26 0  0.76 0.26 0  0.78 0.26 0  0.8 0.26 0  0.82 0.26 0  0.84 0.26 0  0.86 0.26 0  0.88 0.26 0  0.9 0.26 0  0.92 0.26 0  0.9399999999999999 0.26 0  0.96 0.26 0  0.98 0.26 0  1 0.26 0  0 0.28 0  0.02 0.28 0  0.04 0.28 0  0.06 0.28 0  0.08 0.28 0  0.1 0.28 0  0.12 0.28 0  0.14 0.28 0  0.16 0.28 0  0.18 0.28 0  0.2 0.28 0  0.22 0.28 0  0.24 0.28 0  0.26 0.28 0  0.28 0.28 0  0.3 0.28 0  0.32 0.28 0  0.34 0.28 0  0.36 0.28 0  0.38 0.28 0  0.4 0.28 0  0.42 0.28 0  0.44 0.28 0  0.46 0.28 0  0.48 0.28 0  0.5 0.28 0  0.52 0.28 0  0.54 0.28 0  0.5600000000000001 0.28 0  0.58 0.28 0  0.6 0.28 0  0.62 0.28 0  0.64 0.28 0  0.66 0.28 0  0.68 0.28 0  0.7 0.28 0  0.72 0.28 0  0.74 0.28 0  0.76 0.28 0  0.78 0.28 0  0.8 0.28 0  0.82 0.28 0  0.84 0.28 0  0.86 0.28
[...]
<PointData  Scalars="f_15"> 
<DataArray  type="Float64"  Name="f_15"  format="ascii">7.0065770378253089e-01  7.0011267516981068e-01  6.9884258867329352e-01  6.9694257079715516e-01  6.9446873026815226e-01  6.9146174076887268e-01  6.8795431730876122e-01  6.8397465642925526e-01  6.7954839067038764e-01  6.7469985170952185e-01  6.6945295268513494e-01  6.6383182946109709e-01  6.5786130946706967e-01  6.5156724417042300e-01  6.4497672592752087e-01  6.3811820334925151e-01  6.3102150740005769e-01  6.2371780100421526e-01  6.1623946643996586e-01  6.0861994605981562e-01  6.0089355190055271e-01  5.9309525786015738e-01  5.8526048420845189e-01  5.7742487890704408e-01  5.6962409466566011e-01  5.6189355588898937e-01  5.5426820654095110e-01  5.4678222948511934e-01  5.3946873085722347e-01  5.3235938919653314e-01  5.2548407702172695e-01  5.1887047063294989e-01  5.1254367057406747e-01  5.0652585891271784e-01  5.0083601937281430e-01  4.9548974248995825e-01  4.9049913130513084e-01  4.8587281497692786e-01  4.8161606939074975e-01  4.7773103649400123e-01  4.7421702848183933e-01  4.7107089949515035e-01  4.6828746619530526e-01  4.6585995919555934e-01  4.6378048945689615e-01  4.6204051699804732e-01  4.6063131343182895e-01  4.5954441709705401e-01  4.5877207703354628e-01  4.5830789864407384e-01  4.5814802358460782e-01  7.0125449001120777e-01  7.0070455684196498e-01  6.9950788995614532e-01  6.9770674629100915e-01  6.9534759964868875e-01  6.9246790484234810e-01  6.8909904886978279e-01  6.8526862126530452e-01  6.8100194398546410e-01  6.7632314858649434e-01  6.7125596149102051e-01  6.6582428581158304e-01  6.6005262821025168e-01  6.5396639828731296e-01  6.4759209764786607e-01  6.4095741164339981e-01  6.3409121629595389e-01  6.2702351439926485e-01  6.1978531690963778e-01  6.1240848731228170e-01  6.0492556663913855e-01  5.9736959436480208e-01  5.8977393525842403e-01  5.8217211532272684e-01  5.7459766290083558e-01  5.6708394507694315e-01  5.5966398523161065e-01  5.5237024634428211e-01  5.4523436800142633e-01  5.3828685276032939e-01  5.3155670735016536e-01  5.2507105423467448e-01  5.1885473776090829e-01  5.1292995446516143e-01  5.0731593771335703e-01  5.0202872290970413e-01  4.9708101228983614e-01  4.9248214936382156e-01  4.8823820385182237e-01  4.8435215972480528e-01  4.8082419262707571e-01  4.7765201894979820e-01  4.7483129713543398e-01  4.7235606207258801e-01  4.7021917510676720e-01  4.6841277445391299e-01  4.6692871258012258e-01  4.6575896749169643e-01  4.6489599312345509e-01  4.6433315342445547e-01  4.6406678005090879e-01  7.0263428602306588e-01  7.0200589545618997e-01  7.0080494911523650e-01  6.9904164825684845e-01  6.9674766801951538e-01  6.9395330143938760e-01  6.9068610125310304e-01  6.8697144658196063e-01  6.8283328613697869e-01  6.7829482815993647e-01  6.7337911732613598e-01  6.6810949265801245e-01  6.6250993211475484e-01  6.5660529058449191e-01  6.5042143805453756e-01  6.4398530612224991e-01  6.3732485395893657e-01  6.3046896879699232e-01  6.2344731999173064e-01  6.1629018856928608e-01  6.0902829487723520e-01  6.0169264408596879e-01  5.9431440167064453e-01  5.8692480007273495e-01  5.7955506766699805e-01  5.7223636359314478e-01  5.6499969515470816e-01  5.5787579034286661e-01  5.5089490222408211e-01  5.4408653418392039e-01  5.3747908887815143e-01  5.3109945736508424e-01  5.2497257817992815e-01  5.1912100486435242e-01  5.1356452160542754e-01  5.0831984123357410e-01  5.0340041042976680e-01  4.9881633566792666e-01  4.9457443184891686e-01  4.9067838538990133e-01  4.8712901585877344e-01  4.8392461551454957e-01  4.8106134415728791e-01  4.7853365689188632e-01  4.7633474386364416e-01  4.7445696259183673e-01  4.7289224405528635e-01  4.7163245409625754e-01  4.7066967402023951e-01  4.6999687774879295e-01  4.6961443679825787e-01  7.0467453278861425e-01  7.0394722229164042e-01  7.0270412346494038e-01  7.0093924580626177e-01  6.9867431300650273e-01  6.9593289241554490e-01  6.9273810563843319e-01  6.8911239906572175e-01  6.8507772729774985e-01  6.8065589329105403e-01  6.7586890813792255e-01  6.7073930788520264e-01  6.6529039854110472e-01  6.5954641562921823e-01  6.5353259328027946e-01  6.4727514488217552e-01  6.4080116450035540e-01  6.3413846590607537e-01  6.2731538306973122e-01  6.2036056114400850e-01  6.1330276956368945e-01  6.0617076689151950e-01  5.9899323560957707e-01  5.9179878403101038e-01  5.8461599722121949e-01  5.7747351262825508e-01  5.7040008467309267e-01  5.6342458791871575e-01  5.5657591317675748e-01  5.4988273788280173e-01  5.4337317090902826e-01  5.3707428844374772e-01  5.3101160154154614e-01  5.2520851193984253e-01  5.1968581306334649e-01  5.1446128339979325e-01  5.0954940582429664e-01  5.0496123102030832e-01  5.0070438727409639e-01  4.9678322536028091e-01  4.9319907760632475e-01  4.8995060480110064e-01  4.8703420294913813e-01  4.8444444300357814e-01  4.8217451954036533e-01  4.8021668805922685e-01  4.7856267574388761e-01  4.7720406276810629e-01  4.7613263005463780e-01  4.7534143902137854e-01  4.7483532956728952e-01  7.0729931354151865e-01  7.0646135386552444e-01  7.0515390663187705e-01  7.0336069052167949e-01  7.0109731617840854e-01  6.9838228947155290e-01  6.9523478614772571e-01  6.9167430671410801e-01  6.8772063061441358e-01  6.8339395265661462e-01  6.7871508652453738e-01  6.7370566378029739e-01  6.6838828482675061e-01  6.6278659526919648e-01  6.5692527317831051e-01  6.5082992367155457e-01  6.4452688843787753e-01  6.3804299066680570e-01  6.3140524689895561e-01  6.2464058576874948e-01  6.1777561888133170e-01  6.1083651378076653e-01  6.0384900633281036e-01  5.9683853795573627e-01  5.8983047412315126e-01  5.8285037988223043e-01  5.7592430921670890e-01  5.6907901226129409e-01  5.6234195519695196e-01  5.5574114634790706e-01  5.4930476812638029e-01  5.4306061478806034e-01  5.3703540233313196e-01  5.3125404184078906e-01  5.2573896318794278e-01  5.2050955345466732e-01  5.1558175549089769e-01  5.1096785152714619e-01  5.0667643263823459e-01  5.0271253614327238e-01  4.9907792098161557e-01  4.9577144526497674e-01  4.9278950985542697e-01  4.9012653525355354e-01  4.8777544477448870e-01  4.8572813426041089e-01  4.8397591846598381e-01  4.8250996203809626e-01  4.8132169004537456e-01  4.8040412852315506e-01  4.7976610771436817e-01  7.1045012555974718e-01  7.0949302031895345e-01  7.0810614314479770e-01  7.0626549538884120e-01  7.0398271792916900e-01  7.0127265487306822e-01  6.9815127258765475e-01  6.9463544315554993e-01  6.9074287323442030e-01  6.8649216700148552e-01  6.8190294883179170e-01  6.7699598566536523e-01  6.7179326367484526e-01  6.6631798596365932e-01  6.6059446944522449e-01  6.5464793247986552e-01  6.4850417886271206e-01  6.4218920506675192e-01  6.3572877233995628e-01  6.2914800974524021e-01  6.2247109347398122e-01  6.1572108314360485e-01  6.0892006331807569e-01  6.0208948038484456e-01  5.9525059126774815e-01  5.8842499468004628e-01  5.8163528082010651e-01  5.7490560891886544e-01  5.6826185007490948e-01  5.6173149008258194e-01  5.5534325614302016e-01  5.4912639021117970e-01  5.4310968562138073e-01  5.3732047335134447e-01  5.3178368426919209e-01  5.2652106386495101e-01  5.2155060279866527e-01  5.1688622179576238e-01  5.1253770355619421e-01  5.0851084132750290e-01  5.0480775897432340e-01  5.0142735147440731e-01  4.9836579764936834e-01  4.9561710439293205e-01  4.9317365124589374e-01  4.9102671495118316e-01  4.8916696599776910e-01  4.8758494628552829e-01  4.8627150479051467e-01  4.8521931708916605e-01  4.8444070184165111e-01  7.1407713704833986e-01  7.1299404150812917e-01  7.1151648919614818e-01  7.0961408293190287e-01  7.0729563826115904e-01  7.0457327075207810e-01  7.0146037745973622e-01  6.9797159359977046e-01  6.9412278518956483e-01  6.8993112078280250e-01  6.8541517555668174e-01  6.8059501966717839e-01  6.7549224638955307e-01  6.7012990148248075e-01  6.6453228378337115e-01  6.5872460285388545e-01  6.5273249415842161e-01  6.4658143531594703e-01  6.4029607473194516e-01  6.3389970248768890e-01  6.2741375559605739e-01  6.2085742443969083e-01  6.1424807616973554e-01  6.0760195989454580e-01  6.0093496501671484e-01  5.9426329143899292e-01  5.8760474141906871e-01  5.8098025349319704e-01  5.7441381560892113e-01  5.6793245066800879e-01  5.6156613022044344e-01  5.5534657891373052e-01  5.4930592844496207e-01  5.4347518607956424e-01  5.3788298242765709e-01  5.3255445128019863e-01  5.2751042161858841e-01  5.2276699302445850e-01  5.1833544125021502e-01  5.1422241105168598e-01  5.1043032499210583e-01  5.0695793210826812e-01  5.0380093145870009e-01  5.0095261925637724e-01  4.9840452266705609e-01  4.9614699775635213e-01  4.9416978309992199e-01  4.9246251628987742e-01  4.9101517353437213e-01  4.8981974261686750e-01  4.8889155934794143e-01  7.1813544783667838e-01  7.1692059849534373e-01  7.1534350817626080e-01  7.1336816366522660e-01  7.1100116148336179e-01  7.0825246248200902e-01  7.0513336301822094e-01  7.0165661150566894e-01  6.9783649667000791e-01  6.9368897493525594e-01  6.8923180241062232e-01  6.8448462862961434e-01  6.7946900525466680e-01  6.7420826254008615e-01  6.6872721049888650e-01  6.6305164656987570e-01  6.5720762495467255e-01  6.5122065674781948e-01  6.4511451142420528e-01  6.3891078818883573e-01  6.3262806390654147e-01  6.2628014681125321e-01  6.1987827991549838e-01  6.1343155795505799e-01  6.0694997890424918e-01  6.0044108838657173e-01  5.9391565640567978e-01  5.8739069584937753e-01  5.8088873400251706e-01  5.7443485192464983e-01  5.6806148995321193e-01  5.6180523803651272e-01  5.5570295790068125e-01  5.4979115536122269e-01  5.4410383788080352e-01  5.3867092168948016e-01  5.3351710262901386e-01  5.2866134433112455e-01  5.2411676875248991e-01  5.1989095712446520e-01  5.1598651736564194e-01  5.1240180389728507e-01  5.0913170596660273e-01  5.0616844061612531e-01  5.0350230634506266e-01  5.0112237264004156e-01  4.9901709704664676e-01  4.9717487722448056e-01  4.9558448823042850e-01  4.9423690143814553e-01  4.9315000682549504e-01  7.2258313071579272e-01  7.2123161878786601e-01  7.1954779294879034e-01  7.1749055105941639e-01  7.1506457992941630e-01  7.1227801569628624e-01  7.0914036441677342e-01  7.0566275812540957e-01  7.0185815044496958e-01  6.9774152971370451e-01  6.9333011720683890e-01  6.8864350582880329e-01  6.8370368418520522e-01  6.7853488558126973e-01  6.7316319152104187e-01  6.6761586332726297e-01  6.6192025019616463e-01  6.5610303865383734e-01  6.5018716076429606e-01  6.4419278396231461e-01  6.3813648025621050e-01  6.3201908933882889e-01  6.2583473603179207e-01  6.1958711580838521e-01  6.1328571551237077e-01  6.0694181791577539e-01  6.0056639308579063e-01  5.9416826977936577e-01  5.8775571333910437e-01  5.8133696771985799e-01  5.7493220682510482e-01  5.6859701364610415e-01  5.6238915351843510e-01  5.5634798449943867e-01  5.5051771385890058e-01  5.4493435612659835e-01  5.3962776842788096e-01  5.3462062318429660e-01  5.2992823666807121e-01  5.2555913890958583e-01  5.2151590172344908e-01  5.1779611314081264e-01  5.1439340031782621e-01  5.1129842118558544e-01  5.0849977284635983e-01  5.0598479178029476e-01  5.0374024140537921e-01  5.0175289935938794e-01  5.0000999153346537e-01  4.9850114984223526e-01  4.9724634780746341e-01  7.2738009279168325e-01  7.2588778124226105e-01  7.2409130901010532e-01  7.2194487771080051e-01  7.1945139888506848e-01  7.1661734852981274e-01  7.1345062224087019e-01  7.0996091737078171e-01  7.0616004495634210e-01  7.0206225503514075e-01  6.9768454017797710e-01  6.9304686573248331e-01  6.8817225713027652e-01  6.8308664951682418e-01  6.7781843692121446e-01  6.7239770566555879e-01  6.6685399757147845e-01  6.6121693832110007e-01  6.5550734335335947e-01  6.4971102353630616e-01  6.4382250145118314e-01  6.3785367018081662e-01  6.3181440064758809e-01  6.2571295669016147e-01  6.1955874212257078e-01  6.1336098774859749e-01  6.0712875123612786e-01  6.0087035616337825e-01  5.9459384877963506e-01  5.8830705930027716e-01  5.8201704590067271e-01  5.7573234002667473e-01  5.6945451936941849e-01  5.6323216817990940e-01  5.5720116219904137e-01  5.5141100810209998e-01  5.4590017764547227e-01  5.4069561885550321e-01  5.3581505407680341e-01  5.3126781259683420e-01  5.2705601688471049e-01  5.2317591752453574e-01  5.1961924295722184e-01  5.1637445519754221e-01  5.1342785115119249e-01  5.1076449134355983e-01  5.0836896275356624e-01  5.0622599935273038e-01  5.0432091021189163e-01  5.0264166318157344e-01  5.0120983036730493e-01  7.3248738421034776e-01  7.3085089339846099e-01  7.2893694290692623e-01  7.2669535272444719e-01  7.2412728096380008e-01  7.2123758855408038e-01  7.1803263021128583e-01  7.1452075768701473e-01  7.1071276060565614e-01  7.0662233388100959e-01  7.0226653294606201e-01  6.9766615635287121e-01  6.9284595640207092e-01  6.8783454279302370e-01  6.8266418307892140e-01  6.7736870085972922e-01  6.7198227383537767e-01  6.6650049645610510e-01  6.6091514506248639e-01  6.5523662848292330e-01  6.4947210839902092e-01  6.4363049590160126e-01  6.3772029602893676e-01  6.3174963848892174e-01  6.2572668028619471e-01  6.1965946152368345e-01  6.1355579762962309e-01  6.0742314895612559e-01  6.0126864200240926e-01  5.9509907001999085e-01  5.8892084967015390e-01  5.8273983470800861e-01  5.7656138475635688e-01  5.7039006416008464e-01  5.6422902661656393e-01  5.5816810367359637e-01  5.5239156650290411e-01  5.4693536533152254e-01  5.4181992895866815e-01  5.3705497314479778e-01  5.3264145474019664e-01  5.2857341173116024e-01  5.2483977449068375e-01  5.2142596417261233e-01  5.1831522222910720e-01  5.1548967818912006e-01  5.1293118504343582e-01  5.1062196439128549e-01  5.0854501958297882e-01  5.0668632428360050e-01  5.0506854945505386e-01  7.3786678485976442e-01  7.3608351426030694e-01  7.3404821991967451e-01  7.3170660438246860e-01  7.2905801355780386e-01  7.2610564313801929e-01  7.2285427555140902e-01  7.1931090528823660e-01  7.1548532574366130e-01  7.1139077411646401e-01  7.0704459436170142e-01  7.0246885239389212e-01  6.9769080671361627e-01  6.9274294561228678e-01  6.8766277817923738e-01  6.8248132386669225e-01  6.7719234285372121e-01  6.7180073964189690e-01  6.6631352436633906e-01  6.6073823781430807e-01  6.5508212186019033e-01  6.4935259777742393e-01  6.4355704215132248e-01  6.3770268992112911e-01  6.3179667655350191e-01  6.2584599011122788e-01  6.1985741293926877e-01  6.1383745567903936e-01  6.0779232263823468e-01  6.0172788302603630e-01  5.9564962345502170e-01  5.8956257483337882e-01  5.8347126837480134e-01  5.7737978335765383e-01  5.7129178377247325e-01  5.6521056253218616e-01  5.5915693386392484e-01  5.5338533286304259e-01  5.4798141135134348e-01  5.4295431929255955e-01  5.3830268040767615e-01  5.3401698280504384e-01  5.3008210260842514e-01  5.2647931524966129e-01  5.2318786846445964e-01  5.2018618241276493e-01  5.1745274079807102e-01  5.1496674038234236e-01  5.1270847036529665e-01  5.1066157552179647e-01  5.0884931529273625e-01  7.4348058227583302e-01  7.4154875234436335e-01  7.3938915990979526e-01  7.3694361789107987e-01  7.3420953713454806e-01  7.3118831380721383e-01  7.2788302571463614e-01  7.2429918281620875e-01  7.2044547937634740e-01  7.1633465348477310e-01  7.1198442955920049e-01  7.0741850080906488e-01  7.0266735661381630e-01  6.9776876578738778e-01  6.9275663499505957e-01  6.8763774266741418e-01  6.8241824350102021e-01  6.7710376932290206e-01  6.7170070866677001e-01  6.6621532789607207e-01  6.6065397799438974e-01  6.5502302969271442e-01  6.4932883225955829e-01  6.4357765479260332e-01  6.3777565878442521e-01  6.3192886213685506e-01  6.2604309363097632e-01  6.2012394497852330e-01  6.1417673003825901e-01  6.0820644695934822e-01  6.0221773587495719e-01  5.9621483443627854e-01  5.9020154591720497e-01  5.8418122253458582e-01  5.7815675369224928e-01  5.7213045607315882e-01  5.6610403676225107e-01  5.6008529284531694e-01  5.5433156361182900e-01  5.4899337404135395e-01  5.4406458672331015e-01  5.3953010822765668e-01  5.3536906632929027e-01  5.3155718914167305e-01  5.2806859506300263e-01  5.2487709216581002e-01  5.2195708772436977e-01  5.1928420570303813e-01  5.1683560102726289e-01  5.1459225683215182e-01  5.1257750803654245e-01  7.4929149072893453e-01  7.4721019609436867e-01  7.4492424664723622e-01  7.4237176490189338e-01  7.3954804886186487e-01  7.3645248096740368e-01  7.3308619548266896e-01  7.2945295443558023e-01  7.2556008000975758e-01  7.2141957137437729e-01  7.1704946096874900e-01  7.1247514920447108e-01  7.0773042117487495e-01  7.0286010932595155e-01  6.9788741097614693e-01  6.9281750432756672e-01  6.8765537149296818e-01  6.8240614825045098e-01  6.7707507712259718e-01  6.7166747477757882e-01  6.6618872785372030e-01  6.6064424135705047e-01  6.5503940392195059e-01  6.4937954674512588e-01  6.4366990639991806e-01  6.3791558734822174e-01  6.3212152170087610e-01  6.2629242792620365e-01  6.2043277134922470e-01  6.1454672606022775e-01  6.0863813698669600e-01  6.0271048368085978e-01  5.9676684965509974e-01  5.9080989716132448e-01  5.8484183919584232e-01  5.7886440483204404e-01  5.7287884166501213e-01  5.6688565326096940e-01  5.6089283465117978e-01  5.5519120294363589e-01  5.4994484030427004e-01  5.4513014978792740e-01  5.4071835489972053e-01  5.3667793626321447e-01  5.3297655599250915e-01  5.2958239865606660e-01  5.2646503545751588e-01  5.2359595290553729e-01  5.2094875580016842e-01  5.1850144752863658e-01  5.1627693460292579e-01  7.5526267833577054e-01  7.5303194665624207e-01  7.5061848938823583e-01  7.4795691474041792e-01  7.4504018199868927e-01  7.4186536810253023e-01  7.3843131150284114e-01  7.3473960488395518e-01  7.3079571021891754e-01  7.2661037732374978e-01  7.2220141859311060e-01  7.1759569802634016e-01  7.1284109448403199e-01  7.0798925591094708e-01  7.0304564944479175e-01  6.9801427332412658e-01  6.9289919217401130e-01  6.8770458690053970e-01  6.8243476331200914e-01  6.7709412182195516e-01  6.7168712631275385e-01  6.6621826817892404e-01  6.6069203137410637e-01  6.5511285544887310e-01  6.4948509886137962e-01  6.4381300204738734e-01  6.3810064972040370e-01  6.3235193289754188e-01  6.2657051158254107e-01  6.2075977845601982e-01  6.1492282375727969e-01  6.0906240222812724e-01  6.0318090331561991e-01  5.9728032465482250e-01  5.9136224780291158e-01  5.8542781916982589e-01  5.7947774554461018e-01  5.7351232844117184e-01  5.6753152203589197e-01  5.6155627156921062e-01  5.5595225625965483e-01  5.5082713127819372e-01  5.4614165571086204e-01  5.4185498089118356e-01  5.3792683190703483e-01  5.3431868853803854e-01  5.3099451178889057e-01  5.2792110188377761e-01  5.2506812745769749e-01  5.2241032780310404e-01  5.1996970151286503e-01  7.6135787654445841e-01  7.5897872862242655e-01  7.5643755624902431e-01  7.5366561206670235e-01  7.5065325074788947e-01  7.4739487912355007e-01  7.4388657087582755e-01  7.4012714860683226e-01  7.3611946750122759e-01  7.3187214083810326e-01  7.2740228693958786e-01  7.2274566209026692e-01  7.1798860133881781e-01  7.1314703500636156e-01  7.0822392643580045e-01  7.0322223817948581e-01  6.9814509356220800e-01  6.9299579021528757e-01  6.8777775360923998e-01  6.8249450788466637e-01  6.7714964495995911e-01  6.7174679193106568e-01  6.6628957736993188e-01  6.6078159652942181e-01  6.5522637615725354e-01  6.4962733899492842e-01  6.4398776798789670e-01  6.3831077049540896e-01  6.3259924295713399e-01  6.2685583641682308e-01  6.2108292330930992e-01  6.1528256608777099e-01  6.0945648832332855e-01  6.0360604872269830e-01  5.9773221876703553e-01  5.9183556631998402e-01  5.8591624985199731e-01  5.7997402670887643e-01  5.7400820395517538e-01  5.6801862577060835e-01  5.6208432538876407e-01  5.5662267569925084e-01  5.5164393385808574e-01  5.4709635380523214e-01  5.4293012101601656e-01  5.3909892805590764e-01  5.3556040062687271e-01  5.3227616831149072e-01  5.2921164287905953e-01  5.2633807413756872e-01  5.2367611586041407e-01  7.6754154936470553e-01  7.6501605636819692e-01  7.6234795811011458e-01  7.5946530091724351e-01  7.5635554117386217e-01  7.5300998979892853e-01  7.4942137774255024e-01  7.4558498360144465e-01  7.4150009895566049e-01  7.3717224011662619e-01  7.3261595755762932e-01  7.2792716354566489e-01  7.2316304751039773e-01  7.1832508048991306e