<?xml version="1.0"?>
<VTKFile type="UnstructuredGrid"  version="0.1"  >
<UnstructuredGrid>
<Piece  NumberOfPoints="5101" NumberOfCells="10000">
<Points>
<DataArray  type="Float64"  NumberOfComponents="3"  format="ascii">0 0 0  0.2 0 0  0.4 0 0  0.6 0 0  0.8 0 0  1 0 0  1.2 0 0  1.4 0 0  1.6 0 0  1.8 0 0  2 0 0  2.2 0 0  2.4 0 0  2.6 0 0  2.8 0 0  3 0 0  3.2 0 0  3.4 0 0  3.6 0 0  3.8 0 0  4 0 0  4.2 0 0  4.4 0 0  4.6 0 0  4.8 0 0  5 0 0  5.2 0 0  5.4 0 0  5.6 0 0  5.8 0 0  6 0 0  6.2 0 0  6.4 0 0  6.6 0 0  6.8 0 0  7 0 0  7.2 0 0  7.4 0 0  7.6 0 0  7.8 0 0  8 0 0  8.199999999999999 0 0  8.4 0 0  8.6 0 0  8.800000000000001 0 0  9 0 0  9.199999999999999 0 0  9.4 0 0  9.6 0 0  9.800000000000001 0 0  10 0 0  0 0.2 0  0.2 0.2 0  0.4 0.2 0  0.6 0.2 0  0.8 0.2 0  1 0.2 0  1.2 0.2 0  1.4 0.2 0  1.6 0.2 0  1.8 0.2 0  2 0.2 0  2.2 0.2 0  2.4 0.2 0  2.6 0.2 0  2.8 0.2 0  3 0.2 0  3.2 0.2 0  3.4 0.2 0  3.6 0.2 0  3.8 0.2 0  4 0.2 0  4.2 0.2 0  4.4 0.2 0  4.6 0.2 0  4.8 0.2 0  5 0.2 0  5.2 0.2 0  5.4 0.2 0  5.6 0.2 0  5.8 0.2 0  6 0.2 0  6.2 0.2 0  6.4 0.2 0  6.6 0.2 0  6.8 0.2 0  7 0.2 0  7.2 0.2 0  7.4 0.2 0  7.6 0.2 0  7.8 0.2 0  8 0.2 0  8.199999999999999 0.2 0  8.4 0.2 0  8.6 0.2 0  8.800000000000001 0.2 0  9 0.2 0  9.199999999999999 0.2 0  9.4 0.2 0  9.6 0.2 0  9.800000000000001 0.2 0  10 0.2 0  0 0.4 0  0.2 0.4 0  0.4 0.4 0  0.6 0.4 0  0.8 0.4 0  1 0.4 0  1.2 0.4 0  1.4 0.4 0  1.6 0.4 0  1.8 0.4 0  2 0.4 0  2.2 0.4 0  2.4 0.4 0  2.6 0.4 0  2.8 0.4 0  3 0.4 0  3.2 0.4 0  3.4 0.4 0  3.6 0.4 0  3.8 0.4 0  4 0.4 0  4.2 0.4 0  4.4 0.4 0  4.6 0.4 0  4.8 0.4 0  5 0.4 0  5.2 0.4 0  5.4 0.4 0  5.6 0.4 0  5.8 0.4 0  6 0.4 0  6.2 0.4 0  6.4 0.4 0  6.6 0.4 0  6.8 0.4 0  7 0.4 0  7.2 0.4 0  7.4 0.4 0  7.6 0.4 0  7.8 0.4 0  8 0.4 0  8.199999999999999 0.4 0  8.4 0.4 0  8.6 0.4 0  8.800000000000001 0.4 0  9 0.4 0  9.199999999999999 0.4 0  9.4 0.4 0  9.6 0.4 0  9.800000000000001 0.4 0  10 0.4 0  0 0.6 0  0.2 0.6 0  0.4 0.6 0  0.6 0.6 0  0.8 0.6 0  1 0.6 0  1.2 0.6 0  1.4 0.6 0  1.6 0.6 0  1.8 0.6 0  2 0.6 0  2.2 0.6 0  2.4 0.6 0  2.6 0.6 0  2.8 0.6 0  3 0.6 0  3.2 0.6 0  3.4 0.6 0  3.6 0.6 0  3.8 0.6 0  4 0.6 0  4.2 0.6 0  4.4 0.6 0  4.6 0.6 0  4.8 0.6 0  5 0.6 0  5.2 0.6 0  5.4 0.6 0  5.6 0.6 0  5.8 0.6 0  6 0.6 0  6.2 0.6 0  6.4 0.6 0  6.6 0.6 0  6.8 0.6 0  7 0.6 0  7.2 0.6 0  7.4 0.6 0  7.6 0.6 0  7.8 0.6 0  8 0.6 0  8.199999999999999 0.6 0  8.4 0.6 0  8.6 0.6 0  8.800000000000001 0.6 0  9 0.6 0  9.199999999999999 0.6 0  9.4 0.6 0  9.6 0.6 0  9.800000000000001 0.6 0  10 0.6 0  0 0.8 0  0.2 0.8 0  0.4 0.8 0  0.6 0.8 0  0.8 0.8 0  1 0.8 0  1.2 0.8 0  1.4 0.8 0  1.6 0.8 0  1.8 0.8 0  2 0.8 0  2.2 0.8 0  2.4 0.8 0  2.6 0.8 0  2.8 0.8 0  3 0.8 0  3.2 0.8 0  3.4 0.8 0  3.6 0.8 0  3.8 0.8 0  4 0.8 0  4.2 0.8 0  4.4 0.8 0  4.6 0.8 0  4.8 0.8 0  5 0.8 0  5.2 0.8 0  5.4 0.8 0  5.6 0.8 0  5.8 0.8 0  6 0.8 0  6.2 0.8 0  6.4 0.8 0  6.6 0.8 0  6.8 0.8 0  7 0.8 0  7.2 0.8 0  7.4 0.8 0  7.6 0.8 0  7.8 0.8 0  8 0.8 0  8.199999999999999 0.8 0  8.4 0.8 0  8.6 0.8 0  8.800000000000001 0.8 0  9 0.8 0  9.199999999999999 0.8 0  9.4 0.8 0  9.6 0.8 0  9.800000000000001 0.8 0  10 0.8 0  0 1 0  0.2 1 0  0.4 1 0  0.6 1 0  0.8 1 0  1 1 0  1.2 1 0  1.4 1 0  1.6 1 0  1.8 1 0  2 1 0  2.2 1 0  2.4 1 0  2.6 1 0  2.8 1 0  3 1 0  3.2 1 0  3.4 1 0  3.6 1 0  3.8 1 0  4 1 0  4.2 1 0  4.4 1 0  4.6 1 0  4.8 1 0  5 1 0  5.2 1 0  5.4 1 0  5.6 1 0  5.8 1 0  6 1 0  6.2 1 0  6.4 1 0  6.6 1 0  6.8 1 0  7 1 0  7.2 1 0  7.4 1 0  7.6 1 0  7.8 1 0  8 1 0  8.199999999999999 1 0  8.4 1 0  8.6 1 0  8.800000000000001 1 0  9 1 0  9.199999999999999 1 0  9.4 1 0  9.6 1 0  9.800000000000001 1 0  10 1 0  0 1.2 0  0.2 1.2 0  0.4 1.2 0  0.6 1.2 0  0.8 1.2 0  1 1.2 0  1.2 1.2 0  1.4 1.2 0  1.6 1.2 0  1.8 1.2 0  2 1.2 0  2.2 1.2 0  2.4 1.2 0  2.6 1.2 0  2.8 1.2 0  3 1.2 0  3.2 1.2 0  3.4 1.2 0  3.6 1.2 0  3.8 1.2 0  4 1.2 0  4.2 1.2 0  4.4 1.2 0  4.6 1.2 0  4.8 1.2 0  5 1.2 0  5.2 1.2 0  5.4 1.2 0  5.6 1.2 0  5.8 1.2 0  6 1.2 0  6.2 1.2 0  6.4 1.2 0  6.6 1.2 0  6.8 1.2 0  7 1.2 0  7.2 1.2 0  7.4 1.2 0  7.6 1.2 0  7.8 1.2 0  8 1.2 0  8.199999999999999 1.2 0  8.4 1.2 0  8.6 1.2 0  8.800000000000001 1.2 0  9 1.2 0  9.199999999999999 1.2 0  9.4 1.2 0  9.6 1.2 0  9.800000000000001 1.2 0  10 1.2 0  0 1.4 0  0.2 1.4 0  0.4 1.4 0  0.6 1.4 0  0.8 1.4 0  1 1.4 0  1.2 1.4 0  1.4 1.4 0  1.6 1.4 0  1.8 1.4 0  2 1.4 0  2.2 1.4 0  2.4 1.4 0  2.6 1.4 0  2.8 1.4 0  3 1.4 0  3.2 1.4 0  3.4 1.4 0  3.6 1.4 0  3.8 1.4 0  4 1.4 0  4.2 1.4 0  4.4 1.4 0  4.6 1.4 0  4.8 1.4 0  5 1.4 0  5.2 1.4 0  5.4 1.4 0  5.6 1.4 0  5.8 1.4 0  6 1.4 0  6.2 1.4 0  6.4 1.4 0  6.6 1.4 0  6.8 1.4 0  7 1.4 0  7.2 1.4 0  7.4 1.4 0  7.6 1.4 0  7.8 1.4 0  8 1.4 0  8.199999999999999 1.4 0  8.4 1.4 0  8.6 1.4 0  8.800000000000001 1.4 0  9 1.4 0  9.199999999999999 1.4 0  9.4 1.4 0  9.6 1.4 0  9.800000000000001 1.4 0  10 1.4 0  0 1.6 0  0.2 1.6 0  0.4 1.6 0  0.6 1.6 0  0.8 1.6 0  1 1.6 0  1.2 1.6 0  1.4 1.6 0  1.6 1.6 0  1.8 1.6 0  2 1.6 0  2.2 1.6 0  2.4 1.6 0  2.6 1.6 0  2.8 1.6 0  3 1.6 0  3.2 1.6 0  3.4 1.6 0  3.6 1.6 0  3.8 1.6 0  4 1.6 0  4.2 1.6 0  4.4 1.6 0  4.6 1.6 0  4.8 1.6 0  5 1.6 0  5.2 1.6 0  5.4 1.6 0  5.6 1.6 0  5.8 1.6 0  6 1.6 0  6.2 1.6 0  6.4 1.6 0  6.6 1.6 0  6.8 1.6 0  7 1.6 0  7.2 1.6 0  7.4 1.6 0  7.6 1.6 0  7.8 1.6 0  8 1.6 0  8.199999999999999 1.6 0  8.4 1.6 0  8.6 1.6 0  8.800000000000001 1.6 0  9 1.6 0  9.199999999999999 1.6 0  9.4 1.6 0  9.6 1.6 0  9.800000000000001 1.6 0  10 1.6 0  0 1.8 0  0.2 1.8 0  0.4 1.8 0  0.6 1.8 0  0.8 1.8 0  1 1.8 0  1.2 1.8 0  1.4 1.8 0  1.6 1.8 0  1.8 1.8 0  2 1.8 0  2.2 1.8 0  2.4 1.8 0  2.6 1.8 0  2.8 1.8 0  3 1.8 0  3.2 1.8 0  3.4 1.8 0  3.6 1.8 0  3.8 1.8 0  4 1.8 0  4.2 1.8 0  4.4 1.8 0  4.6 1.8 0  4.8 1.8 0  5 1.8 0  5.2 1.8 0  5.4 1.8 0  5.6 1.8 0  5.8 1.8 0  6 1.8 0  6.2 1.8 0  6.4 1.8 0  6.6 1.8 0  6.8 1.8 0  7 1.8 0  7.2 1.8 0  7.4 1.8 0  7.6 1.8 0  7.8 1.8 0  8 1.8 0  8.199999999999999 1.8 0  8.4 1.8 0  8.6 1.8 0  8.800000000000001 1.8 0  9 1.8 0  9.199999999999999 1.8 0  9.4 1.8 0  9.6 1.8 0  9.800000000000001 1.8 0  10 1.8 0  0 2 0  0.2 2 0  0.4 2 0  0.6 2 0  0.8 2 0  1 2 0  1.2 2 0  1.4 2 0  1.6 2 0  1.8 2 0  2 2 0  2.2 2 0  2.4 2 0  2.6 2 0  2.8 2 0  3 2 0  3.2 2 0  3.4 2 0  3.6 2 0  3.8 2 0  4 2 0  4.2 2 0  4.4 2 0  4.6 2 0  4.8 2 0  5 2 0  5.2 2 0  5.4 2 0  5.6 2 0  5.8 2 0  6 2 0  6.2 2 0  6.4 2 0  6.6 2 0  6.8 2 0  7 2 0  7.2 2 0  7.4 2 0  7.6 2 0  7.8 2 0  8 2 0  8.199999999999999 2 0  8.4 2 0  8.6 2 0  8.800000000000001 2 0  9 2 0  9.199999999999999 2 0  9.4 2 0  9.6 2 0  9.800000000000001 2 0  10 2 0  0 2.2 0  0.2 2.2 0  0.4 2.2 0  0.6 2.2 0  0.8 2.2 0  1 2.2 0  1.2 2.2 0  1.4 2.2 0  1.6 2.2 0  1.8 2.2 0  2 2.2 0  2.2 2.2 0  2.4 2.2 0  2.6 2.2 0  2.8 2.2 0  3 2.2 0  3.2 2.2 0  3.4 2.2 0  3.6 2.2 0  3.8 2.2 0  4 2.2 0  4.2 2.2 0  4.4 2.2 0  4.6 2.2 0  4.8 2.2 0  5 2.2 0  5.2 2.2 0  5.4 2.2 0  5.6 2.2 0  5.8 2.2 0  6 2.2 0  6.2 2.2 0  6.4 2.2 0  6.6 2.2 0  6.8 2.2 0  7 2.2 0  7.2 2.2 0  7.4 2.2 0  7.6 2.2 0  7.8 2.2 0  8 2.2 0  8.199999999999999 2.2 0  8.4 2.2 0  8.6 2.2 0  8.800000000000001 2.2 0  9 2.2 0  9.199999999999999 2.2 0  9.4 2.2 0  9.6 2.2 0  9.800000000000001 2.2 0  10 2.2 0  0 2.4 0  0.2 2.4 0  0.4 2.4 0  0.6 2.4 0  0.8 2.4 0  1 2.4 0  1.2 2.4 0  1.4 2.4 0  1.6 2.4 0  1.8 2.4 0  2 2.4 0  2.2 2.4 0  2.4 2.4 0  2.6 2.4 0  2.8 2.4 0  3 2.4 0  3.2 2.4 0  3.4 2.4 0  3.6 2.4 0  3.8 2.4 0  4 2.4 0  4.2 2.4 0  4.4 2.4 0  4.6 2.4 0  4.8 2.4 0  5 2.4 0  5.2 2.4 0  5.4 2.4 0  5.6 2.4 0  5.8 2.4 0  6 2.4 0  6.2 2.4 0  6.4 2.4 0  6.6 2.4 0  6.8 2.4 0  7 2.4 0  7.2 2.4 0  7.4 2.4 0  7.6 2.4 0  7.8 2.4 0  8 2.4 0  8.199999999999999 2.4 0  8.4 2.4 0  8.6 2.4 0  8.800000000000001 2.4 0  9 2.4 0  9.199999999999999 2.4 0  9.4 2.4 0  9.6 2.4 0  9.800000000000001 2.4 0  10 2.4 0  0 2.6 0  0.2 2.6 0  0.4 2.6 0  0.6 2.6 0  0.8 2.6 0  1 2.6 0  1.2 2.6 0  1.4 2.6 0  1.6 2.6 0  1.8 2.6 0  2 2.6 0  2.2 2.6 0  2.4 2.6 0  2.6 2.6 0  2.8 2.6 0  3 2.6 0  3.2 2.6 0  3.4 2.6 0  3.6 2.6 0  3.8 2.6 0  4 2.6 0  4.2 2.6 0  4.4 2.6 0  4.6 2.6 0  4.8 2.6 0  5 2.6 0  5.2 2.6 0  5.4 2.6 0  5.6 2.6 0  5.8 2.6 0  6 2.6 0  6.2 2.6 0  6.4 2.6 0  6.6 2.6 0  6.8 2.6 0  7 2.6 0  7.2 2.6 0  7.4 2.6 0  7.6 2.6 0  7.8 2.6 0  8 2.6 0  8.199999999999999 2.6 0  8.4 2.6 0  8.6 2.6 0  8.800000000000001 2.6 0  9 2.6 0  9.199999999999999 2.6 0  9.4 2.6 0  9.6 2.6 0  9.800000000000001 2.6 0  10 2.6 0  0 2.8 0  0.2 2.8 0  0.4 2.8 0  0.6 2.8 0  0.8 2.8 0  1 2.8 0  1.2 2.8 0  1.4 2.8 0  1.6 2.8 0  1.8 2.8 0  2 2.8 0  2.2 2.8 0  2.4 2.8 0  2.6 2.8 0  2.8 2.8 0  3 2.8 0  3.2 2.8 0  3.4 2.8 0  3.6 2.8 0  3.8 2.8 0  4 2.8 0  4.2 2.8 0  4.4 2.8 0  4.6 2.8 0  4.8 2.8 0  5 2.8 0  5.2 2.8 0  5.4 2.8 0  5.6 2.8 0  5.8 2.8 0  6 2.8 0  6.2 2.8 0  6.4 2.8 0  6.6 2.8 0  6.8 2.8 0  7 2.8 0  7.2 2.8 0  7.4 2.8 0  7.6 2.8 0  7.8 2.8 0  8 2.8 0  8.199999999999999 2.8 0  8.4 2.8 0  8.6 2.8 0  8.800000000000001 2.8 0  9 2.8 0  9.199999999999999 2.8 0  9.4 2.8 0  9.6 2.8 0  9.800000000000001 2.8 0  10 2.8 0  0 3 0  0.2 3 0  0.4 3 0  0.6 3 0  0.8 3 0  1 3 0  1.2 3 0  1.4 3 0  1.6 3 0  1.8 3 0  2 3 0  2.2 3 0  2.4 3 0  2.6 3 0  2.8 3 0  3 3 0  3.2 3 0  3.4 3 0  3.6 3 0  3.8 3 0  4 3 0  4.2 3 0  4.4 3 0  4.6 3 0  4.8 3 0  5 3 0  5.2 3 0  5.4 3 0  5.6 3 0  5.8 3 0  6 3 0  6.2 3 0  6.4 3 0  6.6 3 0  6.8 3 0  7 3 0  7.2 3 0  7.4 3 0  7.6 3 0  7.8 3 0  8 3 0  8.199999999999999 3 0  8.4 3 0  8.6 3 0  8.800000000000001 3 0  9 3 0  9.199999999999999 3 0  9.4 3 0  9.6 3 0  9.800000000000001 3 0  10 3 0  0 3.2 0  0.2 3.2 0  0.4 3.2 0  0.6 3.2 0  0.8 3.2 0  1 3.2 0  1.2 3.2 0  1.4 3.2 0  1.6 3.2 0  1.8 3.2 0  2 3.2 0  2.2 3.2 0  2.4 3.2 0  2.6 3.2 0  2.8 3.2 0  3 3.2 0  3.2 3.2 0  3.4 3.2 0  3.6 3.2 0  3.8 3.2 0  4 3.2 0  4.2 3.2 0  4.4 3.2 0  4.6 3.2 0  4.8 3.2 0  5 3.2 0  5.2 3.2 0  5.4 3.2 0  5.6 3.2 0  5.8 3.2 0  6 3.2 0  6.2 3.2 0  6.4 3.2 0  6.6 3.2 0  6.8 3.2 0  7 3.2 0  7.2 3.2 0  7.4 3.2 0  7.6 3.2 0  7.8 3.2 0  8 3.2 0  8.199999999999999 3.2 0  8.4 3.2 0  8.6 3.2 0  8.800000000000001 3.2 0  9 3.2 0  9.199999999999999 3.2 0  9.4 3.2 0  9.6 3.2 0  9.800000000000001 3.2 0  10 3.2 0  0 3.4 0  0.2 3.4 0  0.4 3.4 0  0.6 3.4 0  0.8 3.4 0  1 
[...]
<PointData  Scalars="f_8"> 
<DataArray  type="Float64"  Name="f_8"  format="ascii">-1.8337033249457055e-02  -7.7676509985215008e-03  -3.0443652959370824e-03  -1.4524524712220702e-03  -2.1846175271729882e-04  6.1279554958455361e-04  1.2257181352295571e-03  1.6860608356735012e-03  2.0381830445146271e-03  2.3110087610469132e-03  2.5241588940772787e-03  2.6913187365284262e-03  2.8221121520177958e-03  2.9232571112704020e-03  2.9993184297110263e-03  3.0532272002428357e-03  3.0866638843663262e-03  3.1003618986441988e-03  3.0943651570202262e-03  3.0682582248103421e-03  3.0213777436708103e-03  2.9530069721552970e-03  2.8625510021917490e-03  2.7496881625402314e-03  2.6144930135779177e-03  2.4575277197658595e-03  2.2799008382245146e-03  2.0832950203208828e-03  1.8699672520531968e-03  1.6427267857576544e-03  1.4048968689945817e-03  1.1602670117465334e-03  9.1304318779493042e-04  6.6780432320891008e-04  4.2947485384454422e-04  2.0332513513261191e-04  -4.9857593816469025e-06  -1.8930633013035009e-04  -3.4280320943610402e-04  -4.5765033743759451e-04  -5.2454143618816827e-04  -5.3193331855209849e-04  -4.6485704412086896e-04  -3.0298851303408474e-04  -1.7210764176680979e-05  4.3659345309956453e-04  1.1235988692385433e-03  2.2272958004197711e-03  3.7019377928905906e-03  8.3235027259427521e-03  1.8754736148441090e-02  -1.4176345154602843e-01  -8.0132231536070020e-02  -4.5959097695625763e-02  -2.5379589787729855e-02  -1.1830662722060488e-02  -2.4215629470105953e-03  4.3021571946231614e-03  9.1702463781526411e-03  1.2691497905068299e-02  1.5194015832924748e-02  1.6896452407146732e-02  1.7947661587545877e-02  1.8450496597401743e-02  1.8477068233363137e-02  1.8079144721344313e-02  1.7295646208440367e-02  1.6158295374346793e-02  1.4695991342232501e-02  1.2938184447102397e-02  1.0917358017916136e-02  8.6706313544676911e-03  6.2404675381144865e-03  3.6744895155024757e-03  1.0244661640740110e-03  -1.6553894231868896e-03  -4.3105849036032184e-03  -6.8886899524120354e-03  -9.3415420726348456e-03  -1.1627026828718693e-02  -1.3710207563456736e-02  -1.5563674320782596e-02  -1.7167084690917687e-02  -1.8505958338730061e-02  -1.9569844339510041e-02  -2.0349996346882584e-02  -2.0836663375574018e-02  -2.1016037163622516e-02  -2.0866794543518561e-02  -2.0356032892504518e-02  -1.9434202559243000e-02  -1.8028349973124465e-02  -1.6032506009687458e-02  -1.3293186215668905e-02  -9.5862673807184419e-03  -4.5778912608650281e-03  2.2463497959457437e-03  1.1721404195067361e-02  2.5306402037190204e-02  4.5896729363464402e-02  8.0058247565667734e-02  1.4167764536139185e-01  -2.0468927392469383e-01  -1.2885818678628955e-01  -7.9690957708613896e-02  -4.6193493467485122e-02  -2.2959137910802396e-02  -6.3587207070744918e-03  5.6925331624305617e-03  1.4503464790772871e-02  2.0917086820269732e-02  2.5493940177661836e-02  2.8614852386369315e-02  3.0542241857787866e-02  3.1458794511977285e-02  3.1493197766926738e-02  3.0738207532760672e-02  2.9263992175403843e-02  2.7128402367647207e-02  2.4385052718669059e-02  2.1089630586230784e-02  1.7304558487432654e-02  1.3101980058004321e-02  8.5649942571827641e-03  3.7871143951098579e-03  -1.1299420412426054e-03  -6.0798512995145328e-03  -1.0956208600224462e-02  -1.5657384451078928e-02  -2.0091061938662547e-02  -2.4177852585149998e-02  -2.7853530973242599e-02  -3.1069634438799495e-02  -3.3792396735076197e-02  -3.6000174963561012e-02  -3.7679649694567982e-02  -3.8821110154133122e-02  -3.9413079395574771e-02  -3.9436400470852735e-02  -3.8857707607770110e-02  -3.7621950269425920e-02  -3.5643304232524112e-02  -3.2793335024895121e-02  -2.8884549793317164e-02  -2.3646229016190741e-02  -1.6687151580421909e-02  -7.4354647534101799e-03  4.9631572700870744e-03  2.1828220029150726e-02  4.5254167163396287e-02  7.8878961979228862e-02  1.2811777810728622e-01  2.0398013754982142e-01  -2.4329477185893697e-01  -1.6365139089753730e-01  -1.0558535819538507e-01  -6.3584529124943778e-02  -3.2963496776661765e-02  -1.0441899930461311e-02  6.2395191919490988e-03  1.8610041987126971e-02  2.7715243817707222e-02  3.4277241341045504e-02  3.8798873178795809e-02  4.1632058876553697e-02  4.3023913415375099e-02  4.3149063156469603e-02  4.2133310244794157e-02  4.0071751680686510e-02  3.7043173720703246e-02  3.3121700166058636e-02  2.8386105637130073e-02  2.2926831573199198e-02  1.6850533604378510e-02  1.0281937546138622e-02  3.3628820828900808e-03  -3.7513425301702757e-03  -1.0897936613463763e-02  -1.7914067382765183e-02  -2.4644883519777866e-02  -3.0950969642488640e-02  -3.6714224199076835e-02  -4.1841398702956396e-02  -4.6264904210620891e-02  -4.9940884886347653e-02  -5.2844889371878791e-02  -5.4965673109489521e-02  -5.6297710614534369e-02  -5.6832893848529915e-02  -5.6551672170449270e-02  -5.5413586133877347e-02  -5.3346783268064531e-02  -5.0235671918272266e-02  -4.5905320253632614e-02  -4.0100433757524430e-02  -3.2455550069737590e-02  -2.2451141616560644e-02  -9.3470970982978963e-03  7.9200187932844893e-03  3.0896160409324015e-02  6.1855389835070891e-02  1.0409050803438900e-01  1.6229784415071008e-01  2.4199821436992244e-01  -2.6861579853274181e-01  -1.8662047490736386e-01  -1.2400302548849486e-01  -7.6502312365770819e-02  -4.0642133958427716e-02  -1.3552923626251850e-02  6.9116332315022509e-03  2.2320860890432122e-02  3.3806193816144685e-02  4.2178895084338766e-02  4.8018383182543339e-02  5.1736571526479702e-02  5.3624837414664943e-02  5.3889060781338823e-02  5.2676667652855398e-02  5.0098323520249753e-02  4.6245912253354983e-02  4.1207654098889650e-02  3.5080612781297912e-02  2.7980400763777124e-02  2.0047627936144577e-02  1.1450581421299766e-02  2.3837926739586003e-03  -6.9374718130296078e-03  -1.6286234108479035e-02  -2.5435226695685882e-02  -3.4169159749239682e-02  -4.2296092341250958e-02  -4.9656295898909068e-02  -5.6127427229707753e-02  -6.1625450605583568e-02  -6.6101406586702730e-02  -6.9534663780748684e-02  -7.1923601240358251e-02  -7.3274717745369755e-02  -7.3590979475858950e-02  -7.2859868357970772e-02  -7.1041154493158329e-02  -6.8053941047974201e-02  -6.3762035026830644e-02  -5.7956156551097530e-02  -5.0330847468136597e-02  -4.0453084432369411e-02  -2.7718457752071681e-02  -1.1289391475585577e-02  9.9912088625713092e-03  3.7716224171190728e-02  7.4052416871283611e-02  1.2188590284439110e-01  1.8470573935376686e-01  2.6678428887674077e-01  -2.8525935883107267e-01  -2.0201620417288457e-01  -1.3653085800547371e-01  -8.5432714009554309e-02  -4.5836934824216767e-02  -1.5273156196889843e-02  8.2290065468917043e-03  2.6188274365158807e-02  3.9747362669122231e-02  4.9752038756221563e-02  5.6819621055305934e-02  6.1394396628309297e-02  6.3791522541810627e-02  6.4232067940676429e-02  6.2871722092727789e-02  5.9825127077166786e-02  5.5187112611713558e-02  4.9051426669237029e-02  4.1526920183638218e-02  3.2750611053715781e-02  2.2896697528373977e-02  1.2180502243141109e-02  8.5657604919208092e-04  -1.0789214052523871e-02  -2.2452930590072858e-02  -3.3829528376615861e-02  -4.4631158438330230e-02  -5.4604090498440359e-02  -6.3541731302284563e-02  -7.1291932502941052e-02  -7.7757824034395476e-02  -8.2892494490441351e-02  -8.6688697357459515e-02  -8.9165217844232786e-02  -9.0351552180051281e-02  -9.0272208988601152e-02  -8.8931381734193224e-02  -8.6298104572711712e-02  -8.2291392307560135e-02  -7.6764322549946987e-02  -6.9485538954120726e-02  -6.0116207285363342e-02  -4.8180024225390361e-02  -3.3023530787309359e-02  -1.3764018230906731e-02  1.0776480210832164e-02  4.2148460042713970e-02  8.2349378043715352e-02  1.3387098824403101e-01  1.9961431228168047e-01  2.8296355712249283e-01  -2.9593066982910343e-01  -2.1186903465838436e-01  -1.4453066024271174e-01  -9.0962705059545540e-02  -4.8664115082092618e-02  -1.5449370791274617e-02  1.0483493783299734e-02  3.0571882929251646e-02  4.5930450342210848e-02  5.7403718145394980e-02  6.5617642403298218e-02  7.1025459070552022e-02  7.3946921373664320e-02  7.4601821241881791e-02  7.3139256951770273e-02  6.9664021073336510e-02  6.4261046387062773e-02  5.7018217784297033e-02  4.8047135771648652e-02  3.7500711882834090e-02  2.5585936530773141e-02  1.2569965016896585e-02  -1.2220186411018316e-03  -1.5417805357530758e-02  -2.9617296419590954e-02  -4.3417461789030845e-02  -5.6439484772181109e-02  -6.8353814058389487e-02  -7.8899147661845928e-02  -8.7892578533440568e-02  -9.5229890119924193e-02  -1.0087678646638172e-01  -1.0485319624631996e-01  -1.0721342616476870e-01  -1.0802483891114033e-01  -1.0734708125176963e-01  -1.0521296482963716e-01  -1.0161115886373945e-01  -9.6470054897725283e-02  -8.9641573802334659e-02  -8.0883297048859812e-02  -6.9837086121557701e-02  -5.6002306573485067e-02  -3.8701998072667568e-02  -1.7041121409467151e-02  1.0142070148100485e-02  4.4326642428412867e-02  8.7349489872686509e-02  1.4142333961658290e-01  2.0906953437612663e-01  2.9325818415397747e-01  -3.0230105266068880e-01  -2.1767837319213335e-01  -1.4904722450322466e-01  -9.3705138528283702e-02  -4.9387635225935832e-02  -1.4108264805668793e-02  1.3797898151379833e-02  3.5685582785487821e-02  5.2625362545793981e-02  6.5440254436889542e-02  7.4744912368150729e-02  8.0983188717381846e-02  8.4462514704744029e-02  8.5385229136420840e-02  8.3877783258319571e-02  8.0018903643034794e-02  7.3867488042895876e-02  6.5490352018828024e-02  5.4989032364542598e-02  4.2523829074131207e-02  2.8332362332643565e-02  1.2739452911719639e-02  -3.8445618486218501e-03  -2.0938675511353495e-02  -3.8018620350082521e-02  -5.4553571027783139e-02  -7.0046530762813128e-02  -8.4071578690990731e-02  -9.6301612083279572e-02  -1.0652227561085506e-01  -1.1463078187814908e-01  -1.2062133118748126e-01  -1.2456097432822030e-01  -1.2656059147562365e-01  -1.2674524507456067e-01  -1.2522692078365319e-01  -1.2208112360076542e-01  -1.1732737607086791e-01  -1.1091261123040105e-01  -1.0269582287872273e-01  -9.2432076150991332e-02  -7.9754009576597534e-02  -6.4149235888504061e-02  -4.4932628682746591e-02  -2.1213548102924990e-02  8.1401231181213972e-03  4.4536537362100490e-02  8.9684736526118330e-02  1.4560516153165429e-01  2.1458742393198116e-01  2.9935564365892769e-01  -3.0548601107690282e-01  -2.2045422645079790e-01  -1.5086791329457205e-01  -9.4186747770599627e-02  -4.8299809669832119e-02  -1.1359485981044993e-02  1.8193839847037652e-02  4.1642159511615061e-02  6.0008787709556234e-02  7.4085556491259669e-02  8.4463397796552167e-02  9.1563210045831483e-02  9.5665669092905609e-02  9.6940042412986774e-02  9.5472898261306324e-02  9.1297877017379486e-02  8.4427445780800692e-02  7.4886802926938167e-02  6.2748871348933602e-02  4.8167753822960672e-02  3.1406439334592071e-02  1.2853471392849026e-02  -6.9766372216027656e-03  -2.7462712422154627e-02  -4.7915941077417770e-02  -6.7634064511237144e-02  -8.5961978180759305e-02  -1.0234765893813622e-01  -1.1638300806236963e-01  -1.2782278431915522e-01  -1.3658006208309623e-01  -1.4270174482287901e-01  -1.4633102395686209e-01  -1.4766462149567372e-01  -1.4691149169899728e-01  -1.4425728121481909e-01  -1.3983624155530941e-01  -1.3371015165896497e-01  -1.2585244286510072e-01  -1.1613510635301683e-01  -1.0431592453016926e-01  -9.0023904690331322e-02  -7.2741378998401454e-02  -5.1782051146883862e-02  -2.6265393671864968e-02  4.9106916927545230e-03  4.3095277399524214e-02  8.9902544812578020e-02  1.4722172006440112e-01  2.1719426520836058e-01  3.0238714362298758e-01  -3.0626607507989045e-01  -2.2091954030067507e-01  -1.5058834418417275e-01  -9.2844078492026250e-02  -4.5680695726099604e-02  -7.3486754455039625e-03  2.3632404954112049e-02  4.8484673640152659e-02  6.8187378442650881e-02  8.3498206979804049e-02  9.4977632418445729e-02  1.0301419852177551e-01  1.0784990705869994e-01  1.0960608819992196e-01  1.0831101234243638e-01  1.0393091298255575e-01  9.6405931889656377e-02  8.5691641017208359e-02  7.1805138864221810e-02  5.4872316176525722e-02  3.5170112471380931e-02  1.3155257495384081e-02  -1.0529699534475200e-02  -3.5080148491551562e-02  -5.9584630624474055e-02  -8.3105383893558343e-02  -1.0477037316405867e-01  -1.2385842727073992e-01  -1.3986003752645176e-01  -1.5250276596581760e-01  -1.6173961229662745e-01  -1.6770747690853494e-01  -1.7066810969285606e-01  -1.7094467300858973e-01  -1.6886421063252910e-01  -1.6471181623109449e-01  -1.5869793921273750e-01  -1.5093712530785106e-01  -1.4143483937666210e-01  -1.3007860859739157e-01  -1.1663011358955494e-01  -1.0071564739104877e-01  -8.1813314542392629e-02  -5.9236372077593961e-02  -3.2113243314054317e-02  6.3402798233730341e-04  4.0309969720819440e-02  8.8460997138058689e-02  1.4688642962281323e-01  2.1762859051932784e-01  3.0314798757466915e-01  -3.0521254206327925e-01  -2.1961190542100267e-01  -1.4866925978926837e-01  -9.0038023113275731e-02  -4.1786410996829330e-02  -2.2352197542386048e-03  3.0037231995518762e-02  5.6205991986492107e-02  7.7212546359081119e-02  9.3781873972638694e-02  1.0644172473799142e-01  1.1554274264138459e-01  1.2127910397361016e-01  1.2371055218065183e-01  1.2278775928200258e-01  1.1838363034199670e-01  1.1033325919470841e-01  9.8484414934087369e-02  8.2758332737849688e-02  6.3217009536676722e-02  4.0128471535031754e-02  1.4016740345103484e-02  -1.4319423608464698e-02  -4.3832960206049959e-02  -7.3305905980621533e-02  -1.0147006863437241e-01  -1.2714887689513546e-01  -1.4938920864016919e-01  -1.6755317263191105e-01  -1.8135151932853044e-01  -1.9081759908637311e-01  -1.9623621853180553e-01  -1.9804983023643369e-01  -1.9676401324714982e-01  -1.9286774687152172e-01  -1.8677557145441759e-01  -1.7879159542309345e-01  -1.6909092498011666e-01  -1.5771242459455129e-01  -1.4455695083133008e-01  -1.2938641279862056e-01  -1.1182051424841480e-01  -9.1329465402530716e-02  -6.7222217618586572e-02  -3.8630911582782215e-02  -4.4932704992886614e-03  3.6464551248967567e-02  8.5742087580678805e-02  1.4507662959278489e-01  2.1644193956732272e-01  3.0222244553772692e-01  -3.0276256450038086e-01  -2.1694743242239478e-01  -1.4547895037045516e-01  -8.6072749750772407e-02  -3.6850845470918180e-02  3.8154317664962074e-03  3.7305283999748903e-02  6.4758767234758582e-02  8.7087756251357826e-02  1.0498931066963364e-01  1.1896023334649136e-01  1.2931181852830115e-01  1.3618482547019983e-01  1.3956607582385347e-01  1.3930947035575433e-01  1.3516543341811343e-01  1.2682347793792823e-01  1.1397215913917519e-01  9.6378360459854595e-02  7.3982883971367139e-02  4.7001580297811811e-02  1.6012095849537451e-02  -1.8000801904483381e-02  -5.3668295818005821e-02  -8.9344246773795044e-02  -1.2328754296620419e-01  -1.5388455969799411e-01  -1.7985744793788033e-01  -2.0040503529591275e-01  -2.1524515256739307e-01  -2.2455979025217682e-01  -2.2887207513541996e-01  -2.2889607015391567e-01  -2.2539597543385870e-01  -2.1907720018990484e-01  -2.1051633052331439e-01  -2.0012575851396699e-01  -1.8814322933213165e-01  -1.7463569922733824e-01  -1.5950867121122250e-01  -1.4251485950442633e-01  -1.2325859498578386e-01  -1.0119441790733529e-01  -7.5619802195900004e-02  -4.5663073099729161e-02  -1.0268443591864723e-02  3.1819385268715028e-02  8.2068887313746022e-02  1.4217452816442905e-01  2.1406144615716982e-01  3.0005763225265775e-01  -2.9926599377509289e-01  -2.1326250559932358e-01  -1.4132349482072451e-01  -8.1213036808079175e-02  -3.1092251903600505e-02  1.0631993268623718e-02  4.5310018092714614e-02  7.4058581035766638e-02  9.7769697265264410e-02  1.1712045254852634e-01  1.3258275130714486e-01  1.4443204351409514e-01  1.5275517385289270e-01  1.5745910759948814e-01  1.5828420928451828e-01  1.5482782386865448e-01  1.4658574933540194e-01  1.3301994451271865e-01  1.1365904769439050e-01  8.8232159272074770e-02  5.6824496872786533e-02  2.0026776316428099e-02  -2.0966428964990624e-02  -6.4360604638287910e-02  -1.0790394942231062e-01  -1.4916513011117136e-01  -1.8588909210099799e-01  -2.1633399991254107e-01  -2.3949180518097465e-01  -2.5513789180426349e-01  -2.6371886198830891e-01  -2.6613774102168553e-01  -2.6351227268181904e-01  -2.5696661548529537e-01  -2.4748673814373695e-01  -2.3584217602376986e-01  -2.2256017571646483e-01  -2.0793285468137795e-01  -1.9203990436725671e-01  -1.7477428918045712e-01  -1.5586348441116465e-01  -1.3488277707131369e-01  -1.1125980935684861e-01  -8.4271159260902909e-02  -5.3032725179829321e-02  -1.6486296822799878e-02  2.6615048272918680e-02  7.7720641360871867e-02  1.3849562242409627e-01  2.1083003353734131e-01  2.9700889213476001e-01  -2.9501544503366495e-01  -2.0884111687596182e-01  -1.3646798345766370e-01  -7.5698217925125350e-02  -2.4720711001290741e-02  1.8034305499684981e-02  5.3900347846901474e-02  8.3982651458758426e-02  1.0916487186714151e-01  1.3011543858066138e-01  1.4729232618171970e-01  1.6094498150091002e-01  1.7111326561058540e-01  1.7762511832395050e-01  1.8009719364464780e-01  1.7794598756325491e-01  1.7042073838533395e-01  1.5667264541249290e-01  1.3587552258589145e-01  1.0740724932592999e-01  7.1085090546942217e-02  2.7419265857292287e-02  -2.2186286616755539e-02  -7.5381531200638160e-02  -1.2904920406900766e-01  -1.7973030942229412e-01  -2.2420584737065233e-01  -2.6005698795271931e-01  -2.8601802755131428e-01  -3.0202430355160126e-01  -3.0898504294819173e-01  -3.0840475473784268e-01  -3.0199385178620686e-01  -2.9136570935946354e-01  -2.7785492364548497e-01  -2.6244414986012554e-01  -2.4576531653580308e-01  -2.2813974941225879e-01  -2.0963041983801356e-01  -1.9009013419973525e-01  -1.6919803215574974e-01  -1.4648229425185533e-01  -1.2132997223241046e-01  -9.2986248441887701e-02  -6.0545989900508308e-02  -2.2940668128429122e-02  2.1076362528836330e-02  7.2944089351183586e-02  1.3430786174028234e-01  2.0703203079933313e-01  2.9336827385917363e-01  -2.9026572966064668e-01  -2.0393278640068241e-01  -1.3115104779738523e-01  -6.9752534464772989e-02  -1.7944633574011600e-02  2.5829504014068479e-02  6.2897833109504392e-02  9.4366221097297254e-02  1.2112333135492574e-01  1.4384386382911210e-01  1.6298846884039359e-01  1.7879838117802510e-01  1.9128380393173008e-01  2.0020697960991951e-01  2.0506393374910981e-01  2.0507350526620541e-01  1.9918874315372395e-01  1.8615342261175752e-01  1.6463267283764063e-01  1.3344554057169616e-01  9.1909193808229137e-02  4.0259885626497814e-02  -1.9954168656733037e-02  -8.5681397487902558e-02  -1.5255938682673945e-01  -2.1556692813642200e-01  -2.6999867713144293e-01  -3.1242569764261530e-01  -3.4127489809619038e-01  -3.5684559732875581e-01  -3.6084944572856847e-01  -3.5573714664021827e-01  -3.4407452619011397e-01  -3.2811687805792394e-01  -3.0960431117994813e-01  -2.8972544127593047e-01  -2.6917689782984922e-01  -2.4825900429022160e-01  -2.2697057360065576e-01  -2.0508524882566437e-01  -1.8220440818199585e-01  -1.5778815701617757e-01  -1.3116848016605442e-01  -1.0154913646656914e-01  -6.7996601636960266e-02  -2.9425940180938019e-02  1.5415018020521382e-02  6.7960986240792248e-02  1.2984404913192174e-01  2.0290937864978870e-01  2.8938239952266753e-01  -2.8524615024149541e-01  -1.9876398176870091e-01  -1.2559429625913182e-01  -6.3592083759444043e-02  -1.0975377579813711e-02  3.3808973059953160e-02  7.2093978378125118e-02  1.0499861269135931e-01  1.3343157027632008e-01  1.5809223179557919e-01  1.7946649495613104e-01  1.9781444433777340e-01  2.1314740136555058e-01  2.2519345692251910e-01  2.3335365679978862e-01  2.3665663871782397e-01  2.3372900231033422e-01  2.2281276878182191e-01  2.0187824549555639e-01  1.6889287676500622e-01  1.2229689836311285e-01  6.1678474401586116e-02  -1.1484948144085344e-02  -9.3318468830017168e-02  -1.7766650391243549e-01  -2.5708110827653580e-01  -3.2449921319296771e-01  -3.7494651681041308e-01  -4.0652088225437821e-01  -4.2028958596815685e-01  -4.1935170076869155e-01  -4.0763199276546336e-01  -3.8889773179754183e-01  -3.6619976410822186e-01  -3.4169743976230738e-01  -3.1672382111924885e-01  -2.9195337047497938e-01  -2.6758219942222150e-01  -2.4347779344849138e-01  -2.1928583937392779e-01  -1.9449712416119391e-01  -1.6848289470684799e-01  -1.4050751911020912e-01  -1.0972591118382423e-01  -7.5171566141215340e-02  -3.5739799544224224e-02  9.8301935