<?xml version="1.0"?>
<VTKFile type="UnstructuredGrid"  version="0.1"  >
<UnstructuredGrid>
<Piece  NumberOfPoints="20" NumberOfCells="24">
<Points>
<DataArray  type="Float64"  NumberOfComponents="3"  format="ascii">0 0 0  0.25 0 0  0.5 0 0  0.75 0 0  1 0 0  0 0.3333333333333333 0  0.25 0.3333333333333333 0  0.5 0.3333333333333333 0  0.75 0.3333333333333333 0  1 0.3333333333333333 0  0 0.6666666666666666 0  0.25 0.6666666666666666 0  0.5 0.6666666666666666 0  0.75 0.6666666666666666 0  1 0.6666666666666666 0  0 1 0  0.25 1 0  0.5 1 0  0.75 1 0  1 1 0  </DataArray>
</Points>
<Cells>
<DataArray  type="UInt32"  Name="connectivity"  format="ascii">0 1 6  0 5 6  1 2 7  1 6 7  2 3 8  2 7 8  3 4 9  3 8 9  5 6 11  5 10 11  6 7 12  6 11 12  7 8 13  7 12 13  8 9 14  8 13 14  10 11 16  10 15 16  11 12 17  11 16 17  12 13 18  12 17 18  13 14 19  13 18 19  </DataArray>
<DataArray  type="UInt32"  Name="offsets"  format="ascii">3 6 9 12 15 18 21 24 27 30 33 36 39 42 45 48 51 54 57 60 63 66 69 72 </DataArray>
<DataArray  type="UInt8"  Name="types"  format="ascii">5 5 5 5 5 5 5 5 5 5 5 5 5 5 5 5 5 5 5 5 5 5 5 5 </DataArray>
</Cells>
<PointData  Scalars="f_12"> 
<DataArray  type="Float64"  Name="f_12"  format="ascii">2.1116395824881447e-02  1.3144187014299458e-01  2.9705528416470184e-01  3.6738720596745705e-01  3.4458107175301766e-01  4.9647073267456224e-02  2.5967087023930252e-01  4.9665348412734478e-01  6.8993359163739265e-01  5.6175117401271701e-01  2.8179252295761043e-02  2.6276130669191311e-01  4.9342206691966156e-01  7.0104349139756628e-01  5.7245509200268929e-01  4.1023730096354880e-03  1.2636445086858406e-01  3.0149932591118589e-01  3.7111753466032815e-01  3.5992732824828816e-01  </DataArray> 
</PointData> 
</Piece>
</UnstructuredGrid>
</VTKFile>