<?xml version="1.0"?>
<VTKFile type="UnstructuredGrid"  version="0.1"  >
<UnstructuredGrid>
<Piece  NumberOfPoints="20" NumberOfCells="24">
<Points>
<DataArray  type="Float64"  NumberOfComponents="3"  format="ascii">0 0 0  0.25 0 0  0.5 0 0  0.75 0 0  1 0 0  0 0.3333333333333333 0  0.25 0.3333333333333333 0  0.5 0.3333333333333333 0  0.75 0.3333333333333333 0  1 0.3333333333333333 0  0 0.6666666666666666 0  0.25 0.6666666666666666 0  0.5 0.6666666666666666 0  0.75 0.6666666666666666 0  1 0.6666666666666666 0  0 1 0  0.25 1 0  0.5 1 0  0.75 1 0  1 1 0  </DataArray>
</Points>
<Cells>
<DataArray  type="UInt32"  Name="connectivity"  format="ascii">0 1 6  0 5 6  1 2 7  1 6 7  2 3 8  2 7 8  3 4 9  3 8 9  5 6 11  5 10 11  6 7 12  6 11 12  7 8 13  7 12 13  8 9 14  8 13 14  10 11 16  10 15 16  11 12 17  11 16 17  12 13 18  12 17 18  13 14 19  13 18 19  </DataArray>
<DataArray  type="UInt32"  Name="offsets"  format="ascii">3 6 9 12 15 18 21 24 27 30 33 36 39 42 45 48 51 54 57 60 63 66 69 72 </DataArray>
<DataArray  type="UInt8"  Name="types"  format="ascii">5 5 5 5 5 5 5 5 5 5 5 5 5 5 5 5 5 5 5 5 5 5 5 5 </DataArray>
</Cells>
<PointData  Scalars="f_21"> 
<DataArray  type="Float64"  Name="f_21"  format="ascii">6.0035232310567765e-01  1.7763916029404495e-01  2.5089168432887993e-01  4.9335015852652259e-01  6.0284270757432867e-01  4.6521869608968108e-01  8.5271673494463796e-02  -1.0642992514714704e-01  2.6311717022574821e-01  4.6849293006679416e-01  4.6996665942188470e-01  2.6574535849556991e-01  5.9596271953684152e-02  2.3799141246446393e-01  4.6101626598877116e-01  6.0294752173515676e-01  4.9482313365450453e-01  4.4155712896112298e-01  4.8598786879201150e-01  5.9834418057328098e-01  </DataArray> 
</PointData> 
</Piece>
</UnstructuredGrid>
</VTKFile>