<?xml version="1.0"?>
<VTKFile type="UnstructuredGrid"  version="0.1"  >
<UnstructuredGrid>
<Piece  NumberOfPoints="20" NumberOfCells="24">
<Points>
<DataArray  type="Float64"  NumberOfComponents="3"  format="ascii">0 0 0  0.25 0 0  0.5 0 0  0.75 0 0  1 0 0  0 0.3333333333333333 0  0.25 0.3333333333333333 0  0.5 0.3333333333333333 0  0.75 0.3333333333333333 0  1 0.3333333333333333 0  0 0.6666666666666666 0  0.25 0.6666666666666666 0  0.5 0.6666666666666666 0  0.75 0.6666666666666666 0  1 0.6666666666666666 0  0 1 0  0.25 1 0  0.5 1 0  0.75 1 0  1 1 0  </DataArray>
</Points>
<Cells>
<DataArray  type="UInt32"  Name="connectivity"  format="ascii">0 1 6  0 5 6  1 2 7  1 6 7  2 3 8  2 7 8  3 4 9  3 8 9  5 6 11  5 10 11  6 7 12  6 11 12  7 8 13  7 12 13  8 9 14  8 13 14  10 11 16  10 15 16  11 12 17  11 16 17  12 13 18  12 17 18  13 14 19  13 18 19  </DataArray>
<DataArray  type="UInt32"  Name="offsets"  format="ascii">3 6 9 12 15 18 21 24 27 30 33 36 39 42 45 48 51 54 57 60 63 66 69 72 </DataArray>
<DataArray  type="UInt8"  Name="types"  format="ascii">5 5 5 5 5 5 5 5 5 5 5 5 5 5 5 5 5 5 5 5 5 5 5 5 </DataArray>
</Cells>
<PointData  Scalars="f_15"> 
<DataArray  type="Float64"  Name="f_15"  format="ascii">-2.3531615904401844e+00  -2.6772419528606322e+00  3.1412483471657198e+00  2.6732774737429255e+00  2.3555528348283925e+00  -1.8885914838318434e+00  -2.1572527277670983e+00  3.1389188620583384e+00  2.1526239155505986e+00  1.8893482422994687e+00  -1.2443350867818210e+00  -9.7991845094295826e-01  -6.1370110511961085e-04  9.7744907550930404e-01  1.2390537815291787e+00  -7.8227648685570850e-01  -4.5957398066108579e-01  5.9553891311579996e-03  4.7521943643094317e-01  7.7917098370533622e-01  </DataArray> 
</PointData> 
</Piece>
</UnstructuredGrid>
</VTKFile>