<?xml version="1.0"?>
<VTKFile type="UnstructuredGrid"  version="0.1"  >
<UnstructuredGrid>
<Piece  NumberOfPoints="20" NumberOfCells="24">
<Points>
<DataArray  type="Float64"  NumberOfComponents="3"  format="ascii">0 0 0  0.25 0 0  0.5 0 0  0.75 0 0  1 0 0  0 0.3333333333333333 0  0.25 0.3333333333333333 0  0.5 0.3333333333333333 0  0.75 0.3333333333333333 0  1 0.3333333333333333 0  0 0.6666666666666666 0  0.25 0.6666666666666666 0  0.5 0.6666666666666666 0  0.75 0.6666666666666666 0  1 0.6666666666666666 0  0 1 0  0.25 1 0  0.5 1 0  0.75 1 0  1 1 0  </DataArray>
</Points>
<Cells>
<DataArray  type="UInt32"  Name="connectivity"  format="ascii">0 1 6  0 5 6  1 2 7  1 6 7  2 3 8  2 7 8  3 4 9  3 8 9  5 6 11  5 10 11  6 7 12  6 11 12  7 8 13  7 12 13  8 9 14  8 13 14  10 11 16  10 15 16  11 12 17  11 16 17  12 13 18  12 17 18  13 14 19  13 18 19  </DataArray>
<DataArray  type="UInt32"  Name="offsets"  format="ascii">3 6 9 12 15 18 21 24 27 30 33 36 39 42 45 48 51 54 57 60 63 66 69 72 </DataArray>
<DataArray  type="UInt8"  Name="types"  format="ascii">5 5 5 5 5 5 5 5 5 5 5 5 5 5 5 5 5 5 5 5 5 5 5 5 </DataArray>
</Cells>
<PointData  Scalars="f_9"> 
<DataArray  type="Float64"  Name="f_9"  format="ascii">-1.6151008062177941e-02  -3.2610712245703041e-02  -3.6069346013773214e-02  -1.5849836183669200e-02  -3.0083424704155028e-03  -1.8725456896377196e-01  -3.3676117538725597e-01  -3.3483248191847464e-01  -3.4076065494880053e-01  -1.8101623042085413e-01  -3.5853821481509945e-01  -6.2771549646102387e-01  -6.2944353500168149e-01  -6.3792729241333446e-01  -3.6520883527565484e-01  -3.4530580702201813e-01  -5.0508457790277583e-01  -5.9817878739896069e-01  -5.1561005580682751e-01  -3.5925979198029018e-01  </DataArray> 
</PointData> 
</Piece>
</UnstructuredGrid>
</VTKFile>