<?xml version="1.0"?>
<VTKFile type="UnstructuredGrid"  version="0.1"  >
<UnstructuredGrid>
<Piece  NumberOfPoints="5101" NumberOfCells="10000">
<Points>
<DataArray  type="Float64"  NumberOfComponents="3"  format="ascii">0 0 0  0.2 0 0  0.4 0 0  0.6 0 0  0.8 0 0  1 0 0  1.2 0 0  1.4 0 0  1.6 0 0  1.8 0 0  2 0 0  2.2 0 0  2.4 0 0  2.6 0 0  2.8 0 0  3 0 0  3.2 0 0  3.4 0 0  3.6 0 0  3.8 0 0  4 0 0  4.2 0 0  4.4 0 0  4.6 0 0  4.8 0 0  5 0 0  5.2 0 0  5.4 0 0  5.6 0 0  5.8 0 0  6 0 0  6.2 0 0  6.4 0 0  6.6 0 0  6.8 0 0  7 0 0  7.2 0 0  7.4 0 0  7.6 0 0  7.8 0 0  8 0 0  8.199999999999999 0 0  8.4 0 0  8.6 0 0  8.800000000000001 0 0  9 0 0  9.199999999999999 0 0  9.4 0 0  9.6 0 0  9.800000000000001 0 0  10 0 0  0 0.2 0  0.2 0.2 0  0.4 0.2 0  0.6 0.2 0  0.8 0.2 0  1 0.2 0  1.2 0.2 0  1.4 0.2 0  1.6 0.2 0  1.8 0.2 0  2 0.2 0  2.2 0.2 0  2.4 0.2 0  2.6 0.2 0  2.8 0.2 0  3 0.2 0  3.2 0.2 0  3.4 0.2 0  3.6 0.2 0  3.8 0.2 0  4 0.2 0  4.2 0.2 0  4.4 0.2 0  4.6 0.2 0  4.8 0.2 0  5 0.2 0  5.2 0.2 0  5.4 0.2 0  5.6 0.2 0  5.8 0.2 0  6 0.2 0  6.2 0.2 0  6.4 0.2 0  6.6 0.2 0  6.8 0.2 0  7 0.2 0  7.2 0.2 0  7.4 0.2 0  7.6 0.2 0  7.8 0.2 0  8 0.2 0  8.199999999999999 0.2 0  8.4 0.2 0  8.6 0.2 0  8.800000000000001 0.2 0  9 0.2 0  9.199999999999999 0.2 0  9.4 0.2 0  9.6 0.2 0  9.800000000000001 0.2 0  10 0.2 0  0 0.4 0  0.2 0.4 0  0.4 0.4 0  0.6 0.4 0  0.8 0.4 0  1 0.4 0  1.2 0.4 0  1.4 0.4 0  1.6 0.4 0  1.8 0.4 0  2 0.4 0  2.2 0.4 0  2.4 0.4 0  2.6 0.4 0  2.8 0.4 0  3 0.4 0  3.2 0.4 0  3.4 0.4 0  3.6 0.4 0  3.8 0.4 0  4 0.4 0  4.2 0.4 0  4.4 0.4 0  4.6 0.4 0  4.8 0.4 0  5 0.4 0  5.2 0.4 0  5.4 0.4 0  5.6 0.4 0  5.8 0.4 0  6 0.4 0  6.2 0.4 0  6.4 0.4 0  6.6 0.4 0  6.8 0.4 0  7 0.4 0  7.2 0.4 0  7.4 0.4 0  7.6 0.4 0  7.8 0.4 0  8 0.4 0  8.199999999999999 0.4 0  8.4 0.4 0  8.6 0.4 0  8.800000000000001 0.4 0  9 0.4 0  9.199999999999999 0.4 0  9.4 0.4 0  9.6 0.4 0  9.800000000000001 0.4 0  10 0.4 0  0 0.6 0  0.2 0.6 0  0.4 0.6 0  0.6 0.6 0  0.8 0.6 0  1 0.6 0  1.2 0.6 0  1.4 0.6 0  1.6 0.6 0  1.8 0.6 0  2 0.6 0  2.2 0.6 0  2.4 0.6 0  2.6 0.6 0  2.8 0.6 0  3 0.6 0  3.2 0.6 0  3.4 0.6 0  3.6 0.6 0  3.8 0.6 0  4 0.6 0  4.2 0.6 0  4.4 0.6 0  4.6 0.6 0  4.8 0.6 0  5 0.6 0  5.2 0.6 0  5.4 0.6 0  5.6 0.6 0  5.8 0.6 0  6 0.6 0  6.2 0.6 0  6.4 0.6 0  6.6 0.6 0  6.8 0.6 0  7 0.6 0  7.2 0.6 0  7.4 0.6 0  7.6 0.6 0  7.8 0.6 0  8 0.6 0  8.199999999999999 0.6 0  8.4 0.6 0  8.6 0.6 0  8.800000000000001 0.6 0  9 0.6 0  9.199999999999999 0.6 0  9.4 0.6 0  9.6 0.6 0  9.800000000000001 0.6 0  10 0.6 0  0 0.8 0  0.2 0.8 0  0.4 0.8 0  0.6 0.8 0  0.8 0.8 0  1 0.8 0  1.2 0.8 0  1.4 0.8 0  1.6 0.8 0  1.8 0.8 0  2 0.8 0  2.2 0.8 0  2.4 0.8 0  2.6 0.8 0  2.8 0.8 0  3 0.8 0  3.2 0.8 0  3.4 0.8 0  3.6 0.8 0  3.8 0.8 0  4 0.8 0  4.2 0.8 0  4.4 0.8 0  4.6 0.8 0  4.8 0.8 0  5 0.8 0  5.2 0.8 0  5.4 0.8 0  5.6 0.8 0  5.8 0.8 0  6 0.8 0  6.2 0.8 0  6.4 0.8 0  6.6 0.8 0  6.8 0.8 0  7 0.8 0  7.2 0.8 0  7.4 0.8 0  7.6 0.8 0  7.8 0.8 0  8 0.8 0  8.199999999999999 0.8 0  8.4 0.8 0  8.6 0.8 0  8.800000000000001 0.8 0  9 0.8 0  9.199999999999999 0.8 0  9.4 0.8 0  9.6 0.8 0  9.800000000000001 0.8 0  10 0.8 0  0 1 0  0.2 1 0  0.4 1 0  0.6 1 0  0.8 1 0  1 1 0  1.2 1 0  1.4 1 0  1.6 1 0  1.8 1 0  2 1 0  2.2 1 0  2.4 1 0  2.6 1 0  2.8 1 0  3 1 0  3.2 1 0  3.4 1 0  3.6 1 0  3.8 1 0  4 1 0  4.2 1 0  4.4 1 0  4.6 1 0  4.8 1 0  5 1 0  5.2 1 0  5.4 1 0  5.6 1 0  5.8 1 0  6 1 0  6.2 1 0  6.4 1 0  6.6 1 0  6.8 1 0  7 1 0  7.2 1 0  7.4 1 0  7.6 1 0  7.8 1 0  8 1 0  8.199999999999999 1 0  8.4 1 0  8.6 1 0  8.800000000000001 1 0  9 1 0  9.199999999999999 1 0  9.4 1 0  9.6 1 0  9.800000000000001 1 0  10 1 0  0 1.2 0  0.2 1.2 0  0.4 1.2 0  0.6 1.2 0  0.8 1.2 0  1 1.2 0  1.2 1.2 0  1.4 1.2 0  1.6 1.2 0  1.8 1.2 0  2 1.2 0  2.2 1.2 0  2.4 1.2 0  2.6 1.2 0  2.8 1.2 0  3 1.2 0  3.2 1.2 0  3.4 1.2 0  3.6 1.2 0  3.8 1.2 0  4 1.2 0  4.2 1.2 0  4.4 1.2 0  4.6 1.2 0  4.8 1.2 0  5 1.2 0  5.2 1.2 0  5.4 1.2 0  5.6 1.2 0  5.8 1.2 0  6 1.2 0  6.2 1.2 0  6.4 1.2 0  6.6 1.2 0  6.8 1.2 0  7 1.2 0  7.2 1.2 0  7.4 1.2 0  7.6 1.2 0  7.8 1.2 0  8 1.2 0  8.199999999999999 1.2 0  8.4 1.2 0  8.6 1.2 0  8.800000000000001 1.2 0  9 1.2 0  9.199999999999999 1.2 0  9.4 1.2 0  9.6 1.2 0  9.800000000000001 1.2 0  10 1.2 0  0 1.4 0  0.2 1.4 0  0.4 1.4 0  0.6 1.4 0  0.8 1.4 0  1 1.4 0  1.2 1.4 0  1.4 1.4 0  1.6 1.4 0  1.8 1.4 0  2 1.4 0  2.2 1.4 0  2.4 1.4 0  2.6 1.4 0  2.8 1.4 0  3 1.4 0  3.2 1.4 0  3.4 1.4 0  3.6 1.4 0  3.8 1.4 0  4 1.4 0  4.2 1.4 0  4.4 1.4 0  4.6 1.4 0  4.8 1.4 0  5 1.4 0  5.2 1.4 0  5.4 1.4 0  5.6 1.4 0  5.8 1.4 0  6 1.4 0  6.2 1.4 0  6.4 1.4 0  6.6 1.4 0  6.8 1.4 0  7 1.4 0  7.2 1.4 0  7.4 1.4 0  7.6 1.4 0  7.8 1.4 0  8 1.4 0  8.199999999999999 1.4 0  8.4 1.4 0  8.6 1.4 0  8.800000000000001 1.4 0  9 1.4 0  9.199999999999999 1.4 0  9.4 1.4 0  9.6 1.4 0  9.800000000000001 1.4 0  10 1.4 0  0 1.6 0  0.2 1.6 0  0.4 1.6 0  0.6 1.6 0  0.8 1.6 0  1 1.6 0  1.2 1.6 0  1.4 1.6 0  1.6 1.6 0  1.8 1.6 0  2 1.6 0  2.2 1.6 0  2.4 1.6 0  2.6 1.6 0  2.8 1.6 0  3 1.6 0  3.2 1.6 0  3.4 1.6 0  3.6 1.6 0  3.8 1.6 0  4 1.6 0  4.2 1.6 0  4.4 1.6 0  4.6 1.6 0  4.8 1.6 0  5 1.6 0  5.2 1.6 0  5.4 1.6 0  5.6 1.6 0  5.8 1.6 0  6 1.6 0  6.2 1.6 0  6.4 1.6 0  6.6 1.6 0  6.8 1.6 0  7 1.6 0  7.2 1.6 0  7.4 1.6 0  7.6 1.6 0  7.8 1.6 0  8 1.6 0  8.199999999999999 1.6 0  8.4 1.6 0  8.6 1.6 0  8.800000000000001 1.6 0  9 1.6 0  9.199999999999999 1.6 0  9.4 1.6 0  9.6 1.6 0  9.800000000000001 1.6 0  10 1.6 0  0 1.8 0  0.2 1.8 0  0.4 1.8 0  0.6 1.8 0  0.8 1.8 0  1 1.8 0  1.2 1.8 0  1.4 1.8 0  1.6 1.8 0  1.8 1.8 0  2 1.8 0  2.2 1.8 0  2.4 1.8 0  2.6 1.8 0  2.8 1.8 0  3 1.8 0  3.2 1.8 0  3.4 1.8 0  3.6 1.8 0  3.8 1.8 0  4 1.8 0  4.2 1.8 0  4.4 1.8 0  4.6 1.8 0  4.8 1.8 0  5 1.8 0  5.2 1.8 0  5.4 1.8 0  5.6 1.8 0  5.8 1.8 0  6 1.8 0  6.2 1.8 0  6.4 1.8 0  6.6 1.8 0  6.8 1.8 0  7 1.8 0  7.2 1.8 0  7.4 1.8 0  7.6 1.8 0  7.8 1.8 0  8 1.8 0  8.199999999999999 1.8 0  8.4 1.8 0  8.6 1.8 0  8.800000000000001 1.8 0  9 1.8 0  9.199999999999999 1.8 0  9.4 1.8 0  9.6 1.8 0  9.800000000000001 1.8 0  10 1.8 0  0 2 0  0.2 2 0  0.4 2 0  0.6 2 0  0.8 2 0  1 2 0  1.2 2 0  1.4 2 0  1.6 2 0  1.8 2 0  2 2 0  2.2 2 0  2.4 2 0  2.6 2 0  2.8 2 0  3 2 0  3.2 2 0  3.4 2 0  3.6 2 0  3.8 2 0  4 2 0  4.2 2 0  4.4 2 0  4.6 2 0  4.8 2 0  5 2 0  5.2 2 0  5.4 2 0  5.6 2 0  5.8 2 0  6 2 0  6.2 2 0  6.4 2 0  6.6 2 0  6.8 2 0  7 2 0  7.2 2 0  7.4 2 0  7.6 2 0  7.8 2 0  8 2 0  8.199999999999999 2 0  8.4 2 0  8.6 2 0  8.800000000000001 2 0  9 2 0  9.199999999999999 2 0  9.4 2 0  9.6 2 0  9.800000000000001 2 0  10 2 0  0 2.2 0  0.2 2.2 0  0.4 2.2 0  0.6 2.2 0  0.8 2.2 0  1 2.2 0  1.2 2.2 0  1.4 2.2 0  1.6 2.2 0  1.8 2.2 0  2 2.2 0  2.2 2.2 0  2.4 2.2 0  2.6 2.2 0  2.8 2.2 0  3 2.2 0  3.2 2.2 0  3.4 2.2 0  3.6 2.2 0  3.8 2.2 0  4 2.2 0  4.2 2.2 0  4.4 2.2 0  4.6 2.2 0  4.8 2.2 0  5 2.2 0  5.2 2.2 0  5.4 2.2 0  5.6 2.2 0  5.8 2.2 0  6 2.2 0  6.2 2.2 0  6.4 2.2 0  6.6 2.2 0  6.8 2.2 0  7 2.2 0  7.2 2.2 0  7.4 2.2 0  7.6 2.2 0  7.8 2.2 0  8 2.2 0  8.199999999999999 2.2 0  8.4 2.2 0  8.6 2.2 0  8.800000000000001 2.2 0  9 2.2 0  9.199999999999999 2.2 0  9.4 2.2 0  9.6 2.2 0  9.800000000000001 2.2 0  10 2.2 0  0 2.4 0  0.2 2.4 0  0.4 2.4 0  0.6 2.4 0  0.8 2.4 0  1 2.4 0  1.2 2.4 0  1.4 2.4 0  1.6 2.4 0  1.8 2.4 0  2 2.4 0  2.2 2.4 0  2.4 2.4 0  2.6 2.4 0  2.8 2.4 0  3 2.4 0  3.2 2.4 0  3.4 2.4 0  3.6 2.4 0  3.8 2.4 0  4 2.4 0  4.2 2.4 0  4.4 2.4 0  4.6 2.4 0  4.8 2.4 0  5 2.4 0  5.2 2.4 0  5.4 2.4 0  5.6 2.4 0  5.8 2.4 0  6 2.4 0  6.2 2.4 0  6.4 2.4 0  6.6 2.4 0  6.8 2.4 0  7 2.4 0  7.2 2.4 0  7.4 2.4 0  7.6 2.4 0  7.8 2.4 0  8 2.4 0  8.199999999999999 2.4 0  8.4 2.4 0  8.6 2.4 0  8.800000000000001 2.4 0  9 2.4 0  9.199999999999999 2.4 0  9.4 2.4 0  9.6 2.4 0  9.800000000000001 2.4 0  10 2.4 0  0 2.6 0  0.2 2.6 0  0.4 2.6 0  0.6 2.6 0  0.8 2.6 0  1 2.6 0  1.2 2.6 0  1.4 2.6 0  1.6 2.6 0  1.8 2.6 0  2 2.6 0  2.2 2.6 0  2.4 2.6 0  2.6 2.6 0  2.8 2.6 0  3 2.6 0  3.2 2.6 0  3.4 2.6 0  3.6 2.6 0  3.8 2.6 0  4 2.6 0  4.2 2.6 0  4.4 2.6 0  4.6 2.6 0  4.8 2.6 0  5 2.6 0  5.2 2.6 0  5.4 2.6 0  5.6 2.6 0  5.8 2.6 0  6 2.6 0  6.2 2.6 0  6.4 2.6 0  6.6 2.6 0  6.8 2.6 0  7 2.6 0  7.2 2.6 0  7.4 2.6 0  7.6 2.6 0  7.8 2.6 0  8 2.6 0  8.199999999999999 2.6 0  8.4 2.6 0  8.6 2.6 0  8.800000000000001 2.6 0  9 2.6 0  9.199999999999999 2.6 0  9.4 2.6 0  9.6 2.6 0  9.800000000000001 2.6 0  10 2.6 0  0 2.8 0  0.2 2.8 0  0.4 2.8 0  0.6 2.8 0  0.8 2.8 0  1 2.8 0  1.2 2.8 0  1.4 2.8 0  1.6 2.8 0  1.8 2.8 0  2 2.8 0  2.2 2.8 0  2.4 2.8 0  2.6 2.8 0  2.8 2.8 0  3 2.8 0  3.2 2.8 0  3.4 2.8 0  3.6 2.8 0  3.8 2.8 0  4 2.8 0  4.2 2.8 0  4.4 2.8 0  4.6 2.8 0  4.8 2.8 0  5 2.8 0  5.2 2.8 0  5.4 2.8 0  5.6 2.8 0  5.8 2.8 0  6 2.8 0  6.2 2.8 0  6.4 2.8 0  6.6 2.8 0  6.8 2.8 0  7 2.8 0  7.2 2.8 0  7.4 2.8 0  7.6 2.8 0  7.8 2.8 0  8 2.8 0  8.199999999999999 2.8 0  8.4 2.8 0  8.6 2.8 0  8.800000000000001 2.8 0  9 2.8 0  9.199999999999999 2.8 0  9.4 2.8 0  9.6 2.8 0  9.800000000000001 2.8 0  10 2.8 0  0 3 0  0.2 3 0  0.4 3 0  0.6 3 0  0.8 3 0  1 3 0  1.2 3 0  1.4 3 0  1.6 3 0  1.8 3 0  2 3 0  2.2 3 0  2.4 3 0  2.6 3 0  2.8 3 0  3 3 0  3.2 3 0  3.4 3 0  3.6 3 0  3.8 3 0  4 3 0  4.2 3 0  4.4 3 0  4.6 3 0  4.8 3 0  5 3 0  5.2 3 0  5.4 3 0  5.6 3 0  5.8 3 0  6 3 0  6.2 3 0  6.4 3 0  6.6 3 0  6.8 3 0  7 3 0  7.2 3 0  7.4 3 0  7.6 3 0  7.8 3 0  8 3 0  8.199999999999999 3 0  8.4 3 0  8.6 3 0  8.800000000000001 3 0  9 3 0  9.199999999999999 3 0  9.4 3 0  9.6 3 0  9.800000000000001 3 0  10 3 0  0 3.2 0  0.2 3.2 0  0.4 3.2 0  0.6 3.2 0  0.8 3.2 0  1 3.2 0  1.2 3.2 0  1.4 3.2 0  1.6 3.2 0  1.8 3.2 0  2 3.2 0  2.2 3.2 0  2.4 3.2 0  2.6 3.2 0  2.8 3.2 0  3 3.2 0  3.2 3.2 0  3.4 3.2 0  3.6 3.2 0  3.8 3.2 0  4 3.2 0  4.2 3.2 0  4.4 3.2 0  4.6 3.2 0  4.8 3.2 0  5 3.2 0  5.2 3.2 0  5.4 3.2 0  5.6 3.2 0  5.8 3.2 0  6 3.2 0  6.2 3.2 0  6.4 3.2 0  6.6 3.2 0  6.8 3.2 0  7 3.2 0  7.2 3.2 0  7.4 3.2 0  7.6 3.2 0  7.8 3.2 0  8 3.2 0  8.199999999999999 3.2 0  8.4 3.2 0  8.6 3.2 0  8.800000000000001 3.2 0  9 3.2 0  9.199999999999999 3.2 0  9.4 3.2 0  9.6 3.2 0  9.800000000000001 3.2 0  10 3.2 0  0 3.4 0  0.2 3.4 0  0.4 3.4 0  0.6 3.4 0  0.8 3.4 0  1 
[...]
<PointData  Scalars="f_5"> 
<DataArray  type="Float64"  Name="f_5"  format="ascii">-9.7560788754933662e-04  -1.3011042096500029e-02  -2.6448738913938976e-02  -3.9772664048776364e-02  -5.2426986109566608e-02  -6.4399355617036386e-02  -7.5767068406383142e-02  -8.6626627177332452e-02  -9.7068700177220024e-02  -1.0716504444242404e-01  -1.1696406029075493e-01  -1.2648897820129068e-01  -1.3573775594309809e-01  -1.4468396695612146e-01  -1.5327851397182790e-01  -1.6145216351090244e-01  -1.6911896067271626e-01  -1.7618056720076974e-01  -1.8253149344537553e-01  -1.8806508358015586e-01  -1.9267998209993314e-01  -1.9628668165496063e-01  -1.9881365436375958e-01  -2.0021252670654341e-01  -2.0046179080494675e-01  -1.9956865823843467e-01  -1.9756884564473534e-01  -1.9452430688292463e-01  -1.9051915594172178e-01  -1.8565421716676761e-01  -1.8004076158950183e-01  -1.7379402263649890e-01  -1.6702703271812791e-01  -1.5984520250039991e-01  -1.5234190608677289e-01  -1.4459516957760438e-01  -1.3666541477085484e-01  -1.2859410253261158e-01  -1.2040306025308777e-01  -1.1209426582433860e-01  -1.0364989434987522e-01  -9.5032513986454237e-02  -8.6185458304946172e-02  -7.7033618121958858e-02  -6.7485481765502342e-02  -5.7437466386433517e-02  -4.6786700013438258e-02  -3.5455652426102942e-02  -2.3462021877280428e-02  -1.1379487939736223e-02  -6.8138493184407027e-04  -1.7572137086262246e-03  -1.8364736696027679e-02  -3.2790597681676831e-02  -4.6538509638108641e-02  -5.9380414705115840e-02  -7.1487064061435665e-02  -8.2950572465548766e-02  -9.3893501897906947e-02  -1.0441401242165954e-01  -1.1458976557808997e-01  -1.2447232986663152e-01  -1.3408684481159588e-01  -1.4343217125122695e-01  -1.5248193462239895e-01  -1.6118628051678829e-01  -1.6947441537527794e-01  -1.7725803695067513e-01  -1.8443572985121809e-01  -1.9089832045824062e-01  -1.9653506308817947e-01  -2.0124038379822429e-01  -2.0492076386079300e-01  -2.0750123095480760e-01  -2.0893087211177136e-01  -2.0918681109996665e-01  -2.0827621258553669e-01  -2.0623607508223496e-01  -2.0313082394123999e-01  -1.9904797036682081e-01  -1.9409231554027523e-01  -1.8837931226243074e-01  -1.8202823045650476e-01  -1.7515571008834960e-01  -1.6787014777767881e-01  -1.6026718555405742e-01  -1.5242638791295274e-01  -1.4440903643512643e-01  -1.3625685872095036e-01  -1.2799144765808534e-01  -1.1961411650361480e-01  -1.1110596989507283e-01  -1.0242804394999853e-01  -9.3521479390923853e-02  -8.4307997779962937e-02  -7.4690396206666801e-02  -6.4557955756962049e-02  -5.3782109419667046e-02  -4.2271135443972790e-02  -2.9858842607254223e-02  -1.6790567537937891e-02  -1.5582945260052613e-03  -2.2306090481508819e-03  -2.1207843009596571e-02  -3.7012260790112113e-02  -5.1478822658694710e-02  -6.4756853308878912e-02  -7.7152346236313063e-02  -8.8845936962096500e-02  -9.9993411750246355e-02  -1.1071504902553758e-01  -1.2110040238755949e-01  -1.3120833260255246e-01  -1.4106799057186906e-01  -1.5067972183462452e-01  -1.6001636583971637e-01  -1.6902504686385936e-01  -1.7762969609721596e-01  -1.8573451674680727e-01  -1.9322855565018779e-01  -1.9999143951349121e-01  -2.0590018037336669e-01  -2.1083676785331434e-01  -2.1469607231180271e-01  -2.1739342055526709e-01  -2.1887111571456208e-01  -2.1910318983073690e-01  -2.1809781785593496e-01  -2.1589707392766763e-01  -2.1257403461625424e-01  -2.0822756784794438e-01  -2.0297542343853364e-01  -1.9694640790753778e-01  -1.9027245651455491e-01  -1.8308131632630326e-01  -1.7549036040468088e-01  -1.6760181464333659e-01  -1.5949944513480785e-01  -1.5124656321598517e-01  -1.4288507802850439e-01  -1.3443526604710718e-01  -1.2589592461356189e-01  -1.1724461682940553e-01  -1.0843778730637629e-01  -9.9410586603771750e-02  -9.0076440242314967e-02  -8.0326013450720338e-02  -7.0026885345354076e-02  -5.9017750514603971e-02  -4.7119916312991464e-02  -3.4030071674260760e-02  -1.9623311126598226e-02  -2.0256447133491845e-03  -2.4838784110360664e-03  -2.2935025005113047e-02  -3.9840605800952465e-02  -5.5060732396804930e-02  -6.8851002136830208e-02  -8.1634110259338408e-02  -9.3651398131020636e-02  -1.0510108094139888e-01  -1.1612800436588171e-01  -1.2683764264605762e-01  -1.3729882119532186e-01  -1.4754635803906355e-01  -1.5758264353552745e-01  -1.6737907291090692e-01  -1.7687774111205851e-01  -1.8599381928972053e-01  -1.9461899184346373e-01  -2.0262625847272014e-01  -2.0987627147077120e-01  -2.1622517665493182e-01  -2.2153366777835740e-01  -2.2567668138690813e-01  -2.2855290452485347e-01  -2.3009310566355293e-01  -2.3026628891079678e-01  -2.2908284633544690e-01  -2.2659423320643673e-01  -2.2288915727985734e-01  -2.1808675977014941e-01  -2.1232766546069778e-01  -2.0576400753631993e-01  -1.9854955124674423e-01  -1.9083086668356444e-01  -1.8274019611898118e-01  -1.7439030717215190e-01  -1.6587129574855630e-01  -1.5724905459046720e-01  -1.4856497609898486e-01  -1.3983640655977705e-01  -1.3105739022236906e-01  -1.2219930580086796e-01  -1.1321107412839229e-01  -1.0401867136180024e-01  -9.4523738542266894e-02  -8.4600578856230443e-02  -7.4092724404655821e-02  -6.2797893053687756e-02  -5.0477806857345695e-02  -3.6715368523479182e-02  -2.1277563477446599e-02  -2.2708142621257360e-03  -2.6591666347108257e-03  -2.4046201008864797e-02  -4.1783766839232891e-02  -5.7645801325033691e-02  -7.1944182436640317e-02  -8.5146470533499219e-02  -9.7542632023653514e-02  -1.0936400792821778e-01  -1.2077979295025637e-01  -1.3191242018567231e-01  -1.4284222833344765e-01  -1.5361101012248160e-01  -1.6422380914844392e-01  -1.7465016221678334e-01  -1.8482538057882961e-01  -1.9465250347623134e-01  -2.0400550930211864e-01  -2.1273429464563406e-01  -2.2067177277273017e-01  -2.2764317908499601e-01  -2.3347730536571848e-01  -2.3801895611068591e-01  -2.4114150603346463e-01  -2.4275814247944225e-01  -2.4283030549203519e-01  -2.4137206057123950e-01  -2.3844965190551054e-01  -2.3417619720089972e-01  -2.2870223952559657e-01  -2.2220348519911901e-01  -2.1486738640352293e-01  -2.0688021457755881e-01  -1.9841595531673897e-01  -1.8962785093651141e-01  -1.8064286425475451e-01  -1.7155885879353425e-01  -1.6244396038756659e-01  -1.5333740220863756e-01  -1.4425113544692303e-01  -1.3517156373315123e-01  -1.2606087800211430e-01  -1.1685758372278711e-01  -1.0747586789876430e-01  -9.7803526981639341e-02  -8.7697543592249544e-02  -7.6978251708648526e-02  -6.5412363805224805e-02  -5.2716003853900399e-02  -3.8430312177021898e-02  -2.2269567509182700e-02  -2.4347177491793612e-03  -2.8010142296787826e-03  -2.4782887036397607e-02  -4.3113288900749537e-02  -5.9489176924186003e-02  -7.4238524845820220e-02  -8.7852417968111801e-02  -1.0064963534310013e-01  -1.1288743013820408e-01  -1.2475641022076377e-01  -1.3639582583767043e-01  -1.4789858732409442e-01  -1.5931478240468530e-01  -1.7065309274631352e-01  -1.8188130726188281e-01  -1.9292668778830691e-01  -2.0367702403330534e-01  -2.1398322302967152e-01  -2.2366423767732713e-01  -2.3251497553439168e-01  -2.4031749611733724e-01  -2.4685528927724756e-01  -2.5192977168252711e-01  -2.5537745550327939e-01  -2.5708570544502063e-01  -2.5700479835667761e-01  -2.5515427511290473e-01  -2.5162234757494839e-01  -2.4655825497135317e-01  -2.4015867993524861e-01  -2.3265031394931762e-01  -2.2427115398760433e-01  -2.1525302472380523e-01  -2.0580724156985325e-01  -1.9611447418407513e-01  -1.8631898812910025e-01  -1.7652673336443253e-01  -1.6680631416651370e-01  -1.5719171989077282e-01  -1.4768575632404654e-01  -1.3826330193348405e-01  -1.2887373472808825e-01  -1.1944206757218763e-01  -1.0986843640174601e-01  -1.0002566675625857e-01  -8.9754134246299258e-02  -7.8854880621927567e-02  -6.7072243780677068e-02  -5.4097835826251640e-02  -3.9454833109463322e-02  -2.2845950349271487e-02  -2.5605551188097623e-03  -2.9138997267624646e-03  -2.5254697279985097e-02  -4.3987408754736480e-02  -6.0747561922489757e-02  -7.5873110626880541e-02  -8.9864912349048323e-02  -1.0306104168381092e-01  -1.1573864757077651e-01  -1.2810734122632433e-01  -1.4032316664334035e-01  -1.5249292874800705e-01  -1.6467693422286755e-01  -1.7688933805575519e-01  -1.8909726438314589e-01  -2.0121955403449993e-01  -2.1312619335221569e-01  -2.2463959982441944e-01  -2.3553899274804760e-01  -2.4556895333965184e-01  -2.5445288680207334e-01  -2.6191138626898747e-01  -2.6768449858979521e-01  -2.7155576176106322e-01  -2.7337490593204783e-01  -2.7307563167802673e-01  -2.7068518939124819e-01  -2.6632366616104397e-01  -2.6019272727663162e-01  -2.5255557665437650e-01  -2.4371151070355299e-01  -2.3396918973524894e-01  -2.2362249324917891e-01  -2.1293175286933913e-01  -2.0211168457663184e-01  -1.9132591980253036e-01  -1.8068698725188781e-01  -1.7026005367693514e-01  -1.6006864881494673e-01  -1.5010083332383381e-01  -1.4031465110607613e-01  -1.3064210001310514e-01  -1.2099116916456973e-01  -1.1124567275443836e-01  -1.0126274230908164e-01  -9.0867382034496805e-02  -7.9845342786888027e-02  -6.7926359008741374e-02  -5.4789020842706350e-02  -3.9954115332919225e-02  -2.3120808838438100e-02  -2.6541446576274566e-03  -3.0084138787190452e-03  -2.5518619129104445e-02  -4.4491081220418977e-02  -6.1513661956703790e-02  -7.6931549930539064e-02  -9.1251375322167191e-02  -1.0482545030813901e-01  -1.1794770267573497e-01  -1.3084579349516878e-01  -1.4369348027495255e-01  -1.5661378109858901e-01  -1.6968035045201382e-01  -1.8291611161694954e-01  -1.9629021855033216e-01  -2.0971426849359659e-01  -2.2303905252977815e-01  -2.3605344098457770e-01  -2.4848723889521698e-01  -2.6001985136230804e-01  -2.7029619695813129e-01  -2.7895036120264061e-01  -2.8563597602163815e-01  -2.9006044405762343e-01  -2.9201835168908608e-01  -2.9141836216678729e-01  -2.8829813926638798e-01  -2.8282366949309573e-01  -2.7527240804739400e-01  -2.6600310616072753e-01  -2.5541789425495881e-01  -2.4392335310046886e-01  -2.3189666967402048e-01  -2.1966096871515386e-01  -2.0747134994636704e-01  -1.9551086012979610e-01  -1.8389410806362727e-01  -1.7267562177350809e-01  -1.6186018345333947e-01  -1.5141295535589683e-01  -1.4126793165036672e-01  -1.3133390593193328e-01  -1.2149762370107020e-01  -1.1162405574908954e-01  -1.0155389308345179e-01  -9.1097953063378242e-02  -8.0029978207519503e-02  -6.8070602951009432e-02  -5.4892717701103447e-02  -4.0021033658810268e-02  -2.3155597284219134e-02  -2.7263222421104781e-03  -3.0890124346834758e-03  -2.5603019462580732e-02  -4.4668549975934967e-02  -6.1835369568349230e-02  -7.7455746180892557e-02  -9.2040963928364819e-02  -1.0595572263074250e-01  -1.1950988631105035e-01  -1.3294981656169372e-01  -1.4646930547303538e-01  -1.6021138807942123e-01  -1.7426798533617205e-01  -1.8867624155023011e-01  -2.0341248829104744e-01  -2.1838477121183242e-01  -2.3342545532781031e-01  -2.4828602109239961e-01  -2.6263673294180617e-01  -2.7607416308474236e-01  -2.8813927676522155e-01  -2.9834761955359657e-01  -3.0623093483116171e-01  -3.1138647722525659e-01  -3.1352707166879212e-01  -3.1252273376862666e-01  -3.0842461615921157e-01  -3.0146482761823468e-01  -2.9203084735168483e-01  -2.8061924613400235e-01  -2.6777813068322603e-01  -2.5404953157041149e-01  -2.3992149004174151e-01  -2.2579580392144005e-01  -2.1197289426211319e-01  -1.9865154086757233e-01  -1.8593910809078221e-01  -1.7386738157491402e-01  -1.6240980160128088e-01  -1.5149710045626627e-01  -1.4102962496815685e-01  -1.3088565194446150e-01  -1.2092567737959516e-01  -1.1099298955308141e-01  -1.0091098694511452e-01  -9.0477266271144552e-02  -7.9456190940014701e-02  -6.7563222312809409e-02  -5.4470194436255143e-02  -3.9709421045212571e-02  -2.2983967652612652e-02  -2.7822056308282423e-03  -3.1592513105699635e-03  -2.5520168749365697e-02  -4.4538097637898316e-02  -6.1730368092357109e-02  -7.7456245800838514e-02  -9.2231709995089256e-02  -1.0643363322249748e-01  -1.2038848256237214e-01  -1.3436340175380604e-01  -1.4857602578095477e-01  -1.6319500683619115e-01  -1.7833775193262724e-01  -1.9406399836127922e-01  -2.1036591353627537e-01  -2.2715555404275503e-01  -2.4425135484481417e-01  -2.6136632743785460e-01  -2.7810176567308958e-01  -2.9395115568465086e-01  -3.0831914060296212e-01  -3.2055916546996227e-01  -3.3003032117972325e-01  -3.3616895719469858e-01  -3.3856482743091132e-01  -3.3702688377997081e-01  -3.3162278490540553e-01  -3.2268037302974761e-01  -3.1074829863681613e-01  -2.9652370500235981e-01  -2.8076325953615194e-01  -2.6419663818180955e-01  -2.4745827945853288e-01  -2.3104594186903532e-01  -2.1530663099810907e-01  -2.0044452868262586e-01  -1.8654279999812726e-01  -1.7359123634738624e-01  -1.6151350115145197e-01  -1.5019011327649293e-01  -1.3947542476528860e-01  -1.2920835422689106e-01  -1.1921748579691549e-01  -1.0932145812147843e-01  -9.9325611937358685e-02  -8.9015317586329953e-02  -7.8147901647175513e-02  -6.6436885143562982e-02  -5.3556584991701607e-02  -3.9049780282293056e-02  -2.2624806550468231e-02  -2.8260550619424161e-03  -3.2213975965058005e-03  -2.5272435807063603e-02  -4.4101548216502008e-02  -6.1195631589625918e-02  -7.6920562094803135e-02  -9.1797102074124892e-02  -1.0621472508045310e-01  -1.2051802328112179e-01  -1.3499804818783454e-01  -1.4990145115419801e-01  -1.6543000805786584e-01  -1.8173652622417633e-01  -1.9891539704439284e-01  -2.1698804719121631e-01  -2.3588378860426948e-01  -2.5541767717940211e-01  -2.7526854080243890e-01  -2.9496231175091736e-01  -3.1386779137387877e-01  -3.3121318009096568e-01  -3.4613092775098436e-01  -3.5773445056315356e-01  -3.6522247789921580e-01  -3.6799639388713523e-01  -3.6576637255791988e-01  -3.5861834397522879e-01  -3.4701986338919261e-01  -3.3175863660482519e-01  -3.1382725042847037e-01  -2.9428302160933151e-01  -2.7411625427267061e-01  -2.5415285141321553e-01  -2.3500302386303429e-01  -2.1705364475270428e-01  -2.0049252820041796e-01  -1.8534991123872155e-01  -1.7154422100118921e-01  -1.5892331961342418e-01  -1.4729672276463729e-01  -1.3645761135574025e-01  -1.2619547532044442e-01  -1.1630112586206648e-01  -1.0656593919231473e-01  -9.6776976797382744e-02  -8.6708852732440250e-02  -7.6114454613111268e-02  -6.4708595593878038e-02  -5.2171489653845611e-02  -3.8059454967369115e-02  -2.2088791986457263e-02  -2.8610158681295628e-03  -3.2768939851856929e-03  -2.4856086541639049e-02  -4.3350208713628671e-02  -6.0214310530691768e-02  -7.5819922912127177e-02  -9.0692124702542579e-02  -1.0523339357466435e-01  -1.1980820082069146e-01  -1.3473518798819659e-01  -1.5029622395644504e-01  -1.6673548869696667e-01  -1.8425397664220100e-01  -2.0299714204376321e-01  -2.2303521576553517e-01  -2.4433595693427151e-01  -2.6673092402550852e-01  -2.8987852596859820e-01  -3.1323029988033341e-01  -3.3601070289706314e-01  -3.5722410779453384e-01  -3.7570360287798699e-01  -3.9021189812932155e-01  -3.9959299070514070e-01  -4.0295489582870003e-01  -3.9984423640163375e-01  -3.9036282296772418e-01  -3.7518418672062048e-01  -3.5545608754305097e-01  -3.3261269176382519e-01  -3.0814925685348576e-01  -2.8341880714634621e-01  -2.5949374206079900e-01  -2.3710715322607034e-01  -2.1666328383806410e-01  -1.9829275341157240e-01  -1.8192650547587286e-01  -1.6736847017022263e-01  -1.5435540451353411e-01  -1.4259971931006923e-01  -1.3181591388472177e-01  -1.2173359141317722e-01  -1.1210062922102619e-01  -1.0267969312246598e-01  -9.3240568853120598e-02  -8.3549640107510148e-02  -7.3358744187124417e-02  -6.2387777761207311e-02  -5.0326687106161914e-02  -3.6749065972459097e-02  -2.1382436411961227e-02  -2.8895749060199780e-03  -3.3264999073335218e-03  -2.4263845187891049e-02  -4.2269238176956409e-02  -5.8761198418216740e-02  -7.4115204114696992e-02  -8.8859222065011914e-02  -1.0340855260249759e-01  -1.1814891615669863e-01  -1.3343015348088536e-01  -1.4957598534307057e-01  -1.6688357121285732e-01  -1.8561754289758650e-01  -2.0599549186053390e-01  -2.2816333366051234e-01  -2.5215896755529255e-01  -2.7786395560033339e-01  -3.0494565469868712e-01  -3.3279691466836331e-01  -3.6048712188664928e-01  -3.8674588104667051e-01  -4.1000587171214914e-01  -4.2852907779618987e-01  -4.4062473949570524e-01  -4.4493591089044121e-01  -4.4073208292935306e-01  -4.2811767542804097e-01  -4.0807354697439296e-01  -3.8229969359083132e-01  -3.5290150824102295e-01  -3.2201939912076744e-01  -2.9151100779532707e-01  -2.6275737572046021e-01  -2.3660757063504204e-01  -2.1343128929663216e-01  -1.9323041635644159e-01  -1.7576482253713038e-01  -1.6066313693302497e-01  -1.4750541599390446e-01  -1.3587626606340997e-01  -1.2539314287077413e-01  -1.1571654419671791e-01  -1.0654839898468359e-01  -9.7623529027720604e-02  -8.8697531897846099e-02  -7.9532774999357361e-02  -6.9884707424685527e-02  -5.9483045083263672e-02  -4.8032029663551482e-02  -3.5127079925352800e-02  -2.0510729354609028e-02  -2.9137061447824832e-03  -3.3703947724379874e-03  -2.3486912592283932e-02  -4.0841250653474617e-02  -5.6807570072945894e-02  -7.1762657730053095e-02  -8.6234635245015470e-02  -1.0065033946294687e-01  -1.1541705450840846e-01  -1.3091854615620049e-01  -1.4752652996847057e-01  -1.6560204667762998e-01  -1.8549063421547068e-01  -2.0750736552712035e-01  -2.3190865151555839e-01  -2.5884708337369666e-01  -2.8830637753996835e-01  -3.2001624379366195e-01  -3.5335306121583138e-01  -3.8724265868645397e-01  -4.2009588872169190e-01  -4.4982226556604427e-01  -4.7397252078891522e-01  -4.9004369631194539e-01  -4.9592920541945962e-01  -4.9041794297014302e-01  -4.7357741484126425e-01  -4.4685337432937938e-01  -4.1281105165949272e-01  -3.7459584472128005e-01  -3.3530954031284477e-01  -2.9750810019876434e-01  -2.6293932901702949e-01  -2.3252137420371594e-01  -2.0648507478495720e-01  -1.8458445452020034e-01  -1.6630188082741446e-01  -1.5100918656127343e-01  -1.3807467965844797e-01  -1.2692247438570919e-01  -1.1705675940619438e-01  -1.0806359313947878e-01  -9.9600127598056601e-02  -9.1377955072496755e-02  -8.3144598598094685e-02  -7.4664901861759905e-02  -6.5704221950381364e-02  -5.6007986407098261e-02  -4.5300126652275327e-02  -3.3203221073225347e-02  -1.9479029331887717e-02  -2.9349545390458379e-03  -3.4082489330248423e-03  -2.2516738639919875e-02  -3.9049606972581516e-02  -5.4325850718490588e-02  -6.8719826011652774e-02  -8.2755475274145798e-02  -9.6868273181775155e-02  -1.1148559057289564e-01  -1.2702595432693378e-01  -1.4391341756959192e-01  -1.6258252852605978e-01  -1.8347703999419623e-01  -2.0703749097867974e-01  -2.3367271750672455e-01  -2.6370857097887296e-01  -2.9730651771015937e-01  -3.3434642224600952e-01  -3.7427416985129469e-01  -4.1592896890105668e-01  -4.5738949224437142e-01  -4.9591012244920052e-01  -5.2804543543902205e-01  -5.5005462527886850e-01  -5.5860303199471795e-01  -5.5162587435271582e-01  -5.2905337448873757e-01  -4.9304523066121214e-01  -4.4755610464298162e-01  -3.9737840971622201e-01  -3.4706186774783437e-01  -3.0011470550905683e-01  -2.5867529661100963e-01  -2.2360051762272903e-01  -1.9478877274115722e-01  -1.7155722068738369e-01  -1.5296099918132131e-01  -1.3801330096501774e-01  -1.2581080519227747e-01  -1.1558811160178163e-01  -1.0672705577033345e-01  -9.8741562408529646e-02  -9.1251882959894323e-02  -8.3956276328213147e-02  -7.6604173428654984e-02  -6.8972068364472186e-02  -6.0843300965595648e-02  -5.1986055938874107e-02  -4.2150089606065123e-02  -3.0991074495459032e-02  -1.8294452156144263e-02  -2.9544657623217880e-03  -3.4392840857732304e-03  -2.1346689822529213e-02  -3.6881594371770639e-02  -5.1294316278845543e-02  -6.4951817376570103e-02  -7.8367701516439459e-02  -9.1981107697544209e-02  -1.0623546935351849e-01  -1.2158186597655912e-01  -1.3849755626811305e-01  -1.5749663899986674e-01  -1.7913545575635254e-01  -2.0400717662285409e-01  -2.3271879837667717e-01  -2.6584026536881655e-01  -3.0381219454069702e-01  -3.4679706091145412e-01  -3.9446240094553031e-01  -4.4569994491908299e-01  -4.9831983854282996e-01  -5.4881924243942803e-01  -5.9239839633973501e-01  -6.2343654447994523e-01  -6.3655924209904102e-01  -6.2814818501176894e-01  -5.9775434739388500e-01  -5.4865178170628004e-01  -4.8709239954431871e-01  -4.2054098602233198e-01  -3.5574636956000272e-01  -2.9747286788134358e-01  -2.48166451192076