<?xml version="1.0"?>
<VTKFile type="UnstructuredGrid"  version="0.1"  >
<UnstructuredGrid>
<Piece  NumberOfPoints="5101" NumberOfCells="10000">
<Points>
<DataArray  type="Float64"  NumberOfComponents="3"  format="ascii">0 0 0  0.2 0 0  0.4 0 0  0.6 0 0  0.8 0 0  1 0 0  1.2 0 0  1.4 0 0  1.6 0 0  1.8 0 0  2 0 0  2.2 0 0  2.4 0 0  2.6 0 0  2.8 0 0  3 0 0  3.2 0 0  3.4 0 0  3.6 0 0  3.8 0 0  4 0 0  4.2 0 0  4.4 0 0  4.6 0 0  4.8 0 0  5 0 0  5.2 0 0  5.4 0 0  5.6 0 0  5.8 0 0  6 0 0  6.2 0 0  6.4 0 0  6.6 0 0  6.8 0 0  7 0 0  7.2 0 0  7.4 0 0  7.6 0 0  7.8 0 0  8 0 0  8.199999999999999 0 0  8.4 0 0  8.6 0 0  8.800000000000001 0 0  9 0 0  9.199999999999999 0 0  9.4 0 0  9.6 0 0  9.800000000000001 0 0  10 0 0  0 0.2 0  0.2 0.2 0  0.4 0.2 0  0.6 0.2 0  0.8 0.2 0  1 0.2 0  1.2 0.2 0  1.4 0.2 0  1.6 0.2 0  1.8 0.2 0  2 0.2 0  2.2 0.2 0  2.4 0.2 0  2.6 0.2 0  2.8 0.2 0  3 0.2 0  3.2 0.2 0  3.4 0.2 0  3.6 0.2 0  3.8 0.2 0  4 0.2 0  4.2 0.2 0  4.4 0.2 0  4.6 0.2 0  4.8 0.2 0  5 0.2 0  5.2 0.2 0  5.4 0.2 0  5.6 0.2 0  5.8 0.2 0  6 0.2 0  6.2 0.2 0  6.4 0.2 0  6.6 0.2 0  6.8 0.2 0  7 0.2 0  7.2 0.2 0  7.4 0.2 0  7.6 0.2 0  7.8 0.2 0  8 0.2 0  8.199999999999999 0.2 0  8.4 0.2 0  8.6 0.2 0  8.800000000000001 0.2 0  9 0.2 0  9.199999999999999 0.2 0  9.4 0.2 0  9.6 0.2 0  9.800000000000001 0.2 0  10 0.2 0  0 0.4 0  0.2 0.4 0  0.4 0.4 0  0.6 0.4 0  0.8 0.4 0  1 0.4 0  1.2 0.4 0  1.4 0.4 0  1.6 0.4 0  1.8 0.4 0  2 0.4 0  2.2 0.4 0  2.4 0.4 0  2.6 0.4 0  2.8 0.4 0  3 0.4 0  3.2 0.4 0  3.4 0.4 0  3.6 0.4 0  3.8 0.4 0  4 0.4 0  4.2 0.4 0  4.4 0.4 0  4.6 0.4 0  4.8 0.4 0  5 0.4 0  5.2 0.4 0  5.4 0.4 0  5.6 0.4 0  5.8 0.4 0  6 0.4 0  6.2 0.4 0  6.4 0.4 0  6.6 0.4 0  6.8 0.4 0  7 0.4 0  7.2 0.4 0  7.4 0.4 0  7.6 0.4 0  7.8 0.4 0  8 0.4 0  8.199999999999999 0.4 0  8.4 0.4 0  8.6 0.4 0  8.800000000000001 0.4 0  9 0.4 0  9.199999999999999 0.4 0  9.4 0.4 0  9.6 0.4 0  9.800000000000001 0.4 0  10 0.4 0  0 0.6 0  0.2 0.6 0  0.4 0.6 0  0.6 0.6 0  0.8 0.6 0  1 0.6 0  1.2 0.6 0  1.4 0.6 0  1.6 0.6 0  1.8 0.6 0  2 0.6 0  2.2 0.6 0  2.4 0.6 0  2.6 0.6 0  2.8 0.6 0  3 0.6 0  3.2 0.6 0  3.4 0.6 0  3.6 0.6 0  3.8 0.6 0  4 0.6 0  4.2 0.6 0  4.4 0.6 0  4.6 0.6 0  4.8 0.6 0  5 0.6 0  5.2 0.6 0  5.4 0.6 0  5.6 0.6 0  5.8 0.6 0  6 0.6 0  6.2 0.6 0  6.4 0.6 0  6.6 0.6 0  6.8 0.6 0  7 0.6 0  7.2 0.6 0  7.4 0.6 0  7.6 0.6 0  7.8 0.6 0  8 0.6 0  8.199999999999999 0.6 0  8.4 0.6 0  8.6 0.6 0  8.800000000000001 0.6 0  9 0.6 0  9.199999999999999 0.6 0  9.4 0.6 0  9.6 0.6 0  9.800000000000001 0.6 0  10 0.6 0  0 0.8 0  0.2 0.8 0  0.4 0.8 0  0.6 0.8 0  0.8 0.8 0  1 0.8 0  1.2 0.8 0  1.4 0.8 0  1.6 0.8 0  1.8 0.8 0  2 0.8 0  2.2 0.8 0  2.4 0.8 0  2.6 0.8 0  2.8 0.8 0  3 0.8 0  3.2 0.8 0  3.4 0.8 0  3.6 0.8 0  3.8 0.8 0  4 0.8 0  4.2 0.8 0  4.4 0.8 0  4.6 0.8 0  4.8 0.8 0  5 0.8 0  5.2 0.8 0  5.4 0.8 0  5.6 0.8 0  5.8 0.8 0  6 0.8 0  6.2 0.8 0  6.4 0.8 0  6.6 0.8 0  6.8 0.8 0  7 0.8 0  7.2 0.8 0  7.4 0.8 0  7.6 0.8 0  7.8 0.8 0  8 0.8 0  8.199999999999999 0.8 0  8.4 0.8 0  8.6 0.8 0  8.800000000000001 0.8 0  9 0.8 0  9.199999999999999 0.8 0  9.4 0.8 0  9.6 0.8 0  9.800000000000001 0.8 0  10 0.8 0  0 1 0  0.2 1 0  0.4 1 0  0.6 1 0  0.8 1 0  1 1 0  1.2 1 0  1.4 1 0  1.6 1 0  1.8 1 0  2 1 0  2.2 1 0  2.4 1 0  2.6 1 0  2.8 1 0  3 1 0  3.2 1 0  3.4 1 0  3.6 1 0  3.8 1 0  4 1 0  4.2 1 0  4.4 1 0  4.6 1 0  4.8 1 0  5 1 0  5.2 1 0  5.4 1 0  5.6 1 0  5.8 1 0  6 1 0  6.2 1 0  6.4 1 0  6.6 1 0  6.8 1 0  7 1 0  7.2 1 0  7.4 1 0  7.6 1 0  7.8 1 0  8 1 0  8.199999999999999 1 0  8.4 1 0  8.6 1 0  8.800000000000001 1 0  9 1 0  9.199999999999999 1 0  9.4 1 0  9.6 1 0  9.800000000000001 1 0  10 1 0  0 1.2 0  0.2 1.2 0  0.4 1.2 0  0.6 1.2 0  0.8 1.2 0  1 1.2 0  1.2 1.2 0  1.4 1.2 0  1.6 1.2 0  1.8 1.2 0  2 1.2 0  2.2 1.2 0  2.4 1.2 0  2.6 1.2 0  2.8 1.2 0  3 1.2 0  3.2 1.2 0  3.4 1.2 0  3.6 1.2 0  3.8 1.2 0  4 1.2 0  4.2 1.2 0  4.4 1.2 0  4.6 1.2 0  4.8 1.2 0  5 1.2 0  5.2 1.2 0  5.4 1.2 0  5.6 1.2 0  5.8 1.2 0  6 1.2 0  6.2 1.2 0  6.4 1.2 0  6.6 1.2 0  6.8 1.2 0  7 1.2 0  7.2 1.2 0  7.4 1.2 0  7.6 1.2 0  7.8 1.2 0  8 1.2 0  8.199999999999999 1.2 0  8.4 1.2 0  8.6 1.2 0  8.800000000000001 1.2 0  9 1.2 0  9.199999999999999 1.2 0  9.4 1.2 0  9.6 1.2 0  9.800000000000001 1.2 0  10 1.2 0  0 1.4 0  0.2 1.4 0  0.4 1.4 0  0.6 1.4 0  0.8 1.4 0  1 1.4 0  1.2 1.4 0  1.4 1.4 0  1.6 1.4 0  1.8 1.4 0  2 1.4 0  2.2 1.4 0  2.4 1.4 0  2.6 1.4 0  2.8 1.4 0  3 1.4 0  3.2 1.4 0  3.4 1.4 0  3.6 1.4 0  3.8 1.4 0  4 1.4 0  4.2 1.4 0  4.4 1.4 0  4.6 1.4 0  4.8 1.4 0  5 1.4 0  5.2 1.4 0  5.4 1.4 0  5.6 1.4 0  5.8 1.4 0  6 1.4 0  6.2 1.4 0  6.4 1.4 0  6.6 1.4 0  6.8 1.4 0  7 1.4 0  7.2 1.4 0  7.4 1.4 0  7.6 1.4 0  7.8 1.4 0  8 1.4 0  8.199999999999999 1.4 0  8.4 1.4 0  8.6 1.4 0  8.800000000000001 1.4 0  9 1.4 0  9.199999999999999 1.4 0  9.4 1.4 0  9.6 1.4 0  9.800000000000001 1.4 0  10 1.4 0  0 1.6 0  0.2 1.6 0  0.4 1.6 0  0.6 1.6 0  0.8 1.6 0  1 1.6 0  1.2 1.6 0  1.4 1.6 0  1.6 1.6 0  1.8 1.6 0  2 1.6 0  2.2 1.6 0  2.4 1.6 0  2.6 1.6 0  2.8 1.6 0  3 1.6 0  3.2 1.6 0  3.4 1.6 0  3.6 1.6 0  3.8 1.6 0  4 1.6 0  4.2 1.6 0  4.4 1.6 0  4.6 1.6 0  4.8 1.6 0  5 1.6 0  5.2 1.6 0  5.4 1.6 0  5.6 1.6 0  5.8 1.6 0  6 1.6 0  6.2 1.6 0  6.4 1.6 0  6.6 1.6 0  6.8 1.6 0  7 1.6 0  7.2 1.6 0  7.4 1.6 0  7.6 1.6 0  7.8 1.6 0  8 1.6 0  8.199999999999999 1.6 0  8.4 1.6 0  8.6 1.6 0  8.800000000000001 1.6 0  9 1.6 0  9.199999999999999 1.6 0  9.4 1.6 0  9.6 1.6 0  9.800000000000001 1.6 0  10 1.6 0  0 1.8 0  0.2 1.8 0  0.4 1.8 0  0.6 1.8 0  0.8 1.8 0  1 1.8 0  1.2 1.8 0  1.4 1.8 0  1.6 1.8 0  1.8 1.8 0  2 1.8 0  2.2 1.8 0  2.4 1.8 0  2.6 1.8 0  2.8 1.8 0  3 1.8 0  3.2 1.8 0  3.4 1.8 0  3.6 1.8 0  3.8 1.8 0  4 1.8 0  4.2 1.8 0  4.4 1.8 0  4.6 1.8 0  4.8 1.8 0  5 1.8 0  5.2 1.8 0  5.4 1.8 0  5.6 1.8 0  5.8 1.8 0  6 1.8 0  6.2 1.8 0  6.4 1.8 0  6.6 1.8 0  6.8 1.8 0  7 1.8 0  7.2 1.8 0  7.4 1.8 0  7.6 1.8 0  7.8 1.8 0  8 1.8 0  8.199999999999999 1.8 0  8.4 1.8 0  8.6 1.8 0  8.800000000000001 1.8 0  9 1.8 0  9.199999999999999 1.8 0  9.4 1.8 0  9.6 1.8 0  9.800000000000001 1.8 0  10 1.8 0  0 2 0  0.2 2 0  0.4 2 0  0.6 2 0  0.8 2 0  1 2 0  1.2 2 0  1.4 2 0  1.6 2 0  1.8 2 0  2 2 0  2.2 2 0  2.4 2 0  2.6 2 0  2.8 2 0  3 2 0  3.2 2 0  3.4 2 0  3.6 2 0  3.8 2 0  4 2 0  4.2 2 0  4.4 2 0  4.6 2 0  4.8 2 0  5 2 0  5.2 2 0  5.4 2 0  5.6 2 0  5.8 2 0  6 2 0  6.2 2 0  6.4 2 0  6.6 2 0  6.8 2 0  7 2 0  7.2 2 0  7.4 2 0  7.6 2 0  7.8 2 0  8 2 0  8.199999999999999 2 0  8.4 2 0  8.6 2 0  8.800000000000001 2 0  9 2 0  9.199999999999999 2 0  9.4 2 0  9.6 2 0  9.800000000000001 2 0  10 2 0  0 2.2 0  0.2 2.2 0  0.4 2.2 0  0.6 2.2 0  0.8 2.2 0  1 2.2 0  1.2 2.2 0  1.4 2.2 0  1.6 2.2 0  1.8 2.2 0  2 2.2 0  2.2 2.2 0  2.4 2.2 0  2.6 2.2 0  2.8 2.2 0  3 2.2 0  3.2 2.2 0  3.4 2.2 0  3.6 2.2 0  3.8 2.2 0  4 2.2 0  4.2 2.2 0  4.4 2.2 0  4.6 2.2 0  4.8 2.2 0  5 2.2 0  5.2 2.2 0  5.4 2.2 0  5.6 2.2 0  5.8 2.2 0  6 2.2 0  6.2 2.2 0  6.4 2.2 0  6.6 2.2 0  6.8 2.2 0  7 2.2 0  7.2 2.2 0  7.4 2.2 0  7.6 2.2 0  7.8 2.2 0  8 2.2 0  8.199999999999999 2.2 0  8.4 2.2 0  8.6 2.2 0  8.800000000000001 2.2 0  9 2.2 0  9.199999999999999 2.2 0  9.4 2.2 0  9.6 2.2 0  9.800000000000001 2.2 0  10 2.2 0  0 2.4 0  0.2 2.4 0  0.4 2.4 0  0.6 2.4 0  0.8 2.4 0  1 2.4 0  1.2 2.4 0  1.4 2.4 0  1.6 2.4 0  1.8 2.4 0  2 2.4 0  2.2 2.4 0  2.4 2.4 0  2.6 2.4 0  2.8 2.4 0  3 2.4 0  3.2 2.4 0  3.4 2.4 0  3.6 2.4 0  3.8 2.4 0  4 2.4 0  4.2 2.4 0  4.4 2.4 0  4.6 2.4 0  4.8 2.4 0  5 2.4 0  5.2 2.4 0  5.4 2.4 0  5.6 2.4 0  5.8 2.4 0  6 2.4 0  6.2 2.4 0  6.4 2.4 0  6.6 2.4 0  6.8 2.4 0  7 2.4 0  7.2 2.4 0  7.4 2.4 0  7.6 2.4 0  7.8 2.4 0  8 2.4 0  8.199999999999999 2.4 0  8.4 2.4 0  8.6 2.4 0  8.800000000000001 2.4 0  9 2.4 0  9.199999999999999 2.4 0  9.4 2.4 0  9.6 2.4 0  9.800000000000001 2.4 0  10 2.4 0  0 2.6 0  0.2 2.6 0  0.4 2.6 0  0.6 2.6 0  0.8 2.6 0  1 2.6 0  1.2 2.6 0  1.4 2.6 0  1.6 2.6 0  1.8 2.6 0  2 2.6 0  2.2 2.6 0  2.4 2.6 0  2.6 2.6 0  2.8 2.6 0  3 2.6 0  3.2 2.6 0  3.4 2.6 0  3.6 2.6 0  3.8 2.6 0  4 2.6 0  4.2 2.6 0  4.4 2.6 0  4.6 2.6 0  4.8 2.6 0  5 2.6 0  5.2 2.6 0  5.4 2.6 0  5.6 2.6 0  5.8 2.6 0  6 2.6 0  6.2 2.6 0  6.4 2.6 0  6.6 2.6 0  6.8 2.6 0  7 2.6 0  7.2 2.6 0  7.4 2.6 0  7.6 2.6 0  7.8 2.6 0  8 2.6 0  8.199999999999999 2.6 0  8.4 2.6 0  8.6 2.6 0  8.800000000000001 2.6 0  9 2.6 0  9.199999999999999 2.6 0  9.4 2.6 0  9.6 2.6 0  9.800000000000001 2.6 0  10 2.6 0  0 2.8 0  0.2 2.8 0  0.4 2.8 0  0.6 2.8 0  0.8 2.8 0  1 2.8 0  1.2 2.8 0  1.4 2.8 0  1.6 2.8 0  1.8 2.8 0  2 2.8 0  2.2 2.8 0  2.4 2.8 0  2.6 2.8 0  2.8 2.8 0  3 2.8 0  3.2 2.8 0  3.4 2.8 0  3.6 2.8 0  3.8 2.8 0  4 2.8 0  4.2 2.8 0  4.4 2.8 0  4.6 2.8 0  4.8 2.8 0  5 2.8 0  5.2 2.8 0  5.4 2.8 0  5.6 2.8 0  5.8 2.8 0  6 2.8 0  6.2 2.8 0  6.4 2.8 0  6.6 2.8 0  6.8 2.8 0  7 2.8 0  7.2 2.8 0  7.4 2.8 0  7.6 2.8 0  7.8 2.8 0  8 2.8 0  8.199999999999999 2.8 0  8.4 2.8 0  8.6 2.8 0  8.800000000000001 2.8 0  9 2.8 0  9.199999999999999 2.8 0  9.4 2.8 0  9.6 2.8 0  9.800000000000001 2.8 0  10 2.8 0  0 3 0  0.2 3 0  0.4 3 0  0.6 3 0  0.8 3 0  1 3 0  1.2 3 0  1.4 3 0  1.6 3 0  1.8 3 0  2 3 0  2.2 3 0  2.4 3 0  2.6 3 0  2.8 3 0  3 3 0  3.2 3 0  3.4 3 0  3.6 3 0  3.8 3 0  4 3 0  4.2 3 0  4.4 3 0  4.6 3 0  4.8 3 0  5 3 0  5.2 3 0  5.4 3 0  5.6 3 0  5.8 3 0  6 3 0  6.2 3 0  6.4 3 0  6.6 3 0  6.8 3 0  7 3 0  7.2 3 0  7.4 3 0  7.6 3 0  7.8 3 0  8 3 0  8.199999999999999 3 0  8.4 3 0  8.6 3 0  8.800000000000001 3 0  9 3 0  9.199999999999999 3 0  9.4 3 0  9.6 3 0  9.800000000000001 3 0  10 3 0  0 3.2 0  0.2 3.2 0  0.4 3.2 0  0.6 3.2 0  0.8 3.2 0  1 3.2 0  1.2 3.2 0  1.4 3.2 0  1.6 3.2 0  1.8 3.2 0  2 3.2 0  2.2 3.2 0  2.4 3.2 0  2.6 3.2 0  2.8 3.2 0  3 3.2 0  3.2 3.2 0  3.4 3.2 0  3.6 3.2 0  3.8 3.2 0  4 3.2 0  4.2 3.2 0  4.4 3.2 0  4.6 3.2 0  4.8 3.2 0  5 3.2 0  5.2 3.2 0  5.4 3.2 0  5.6 3.2 0  5.8 3.2 0  6 3.2 0  6.2 3.2 0  6.4 3.2 0  6.6 3.2 0  6.8 3.2 0  7 3.2 0  7.2 3.2 0  7.4 3.2 0  7.6 3.2 0  7.8 3.2 0  8 3.2 0  8.199999999999999 3.2 0  8.4 3.2 0  8.6 3.2 0  8.800000000000001 3.2 0  9 3.2 0  9.199999999999999 3.2 0  9.4 3.2 0  9.6 3.2 0  9.800000000000001 3.2 0  10 3.2 0  0 3.4 0  0.2 3.4 0  0.4 3.4 0  0.6 3.4 0  0.8 3.4 0  1 
[...]
<PointData  Scalars="f_14"> 
<DataArray  type="Float64"  Name="f_14"  format="ascii">9.9054581307186906e-01  9.8984985041336260e-01  9.8811959944958694e-01  9.8583624930130676e-01  9.8335618707973294e-01  9.8091106274803197e-01  9.7863631743465196e-01  9.7660019571790968e-01  9.7482699436149123e-01  9.7331401824246222e-01  9.7204332041406138e-01  9.7098947513126532e-01  9.7012449745395779e-01  9.6942078704657519e-01  9.6885275074720068e-01  9.6839757373051438e-01  9.6803546618307101e-01  9.6774960650774811e-01  9.6752592604156273e-01  9.6735282714463877e-01  9.6722089034500736e-01  9.6712260225848634e-01  9.6705212063392454e-01  9.6700508344912539e-01  9.6697846360598538e-01  9.6697046811501053e-01  9.6698047979165846e-01  9.6700903975063512e-01  9.6705786988521059e-01  9.6712993564781269e-01  9.6722955041864556e-01  9.6736252313898496e-01  9.6753635017812500e-01  9.6776044991123056e-01  9.6804643325571882e-01  9.6840839409678059e-01  9.6886318822226447e-01  9.6943064543028767e-01  9.7013362326639174e-01  9.7099775765812435e-01  9.7205068960579621e-01  9.7332044110985982e-01  9.7483247054340205e-01  9.7660475288133575e-01  9.7864000712317156e-01  9.8091395723964392e-01  9.8335837776452495e-01  9.8583784706069000e-01  9.8812073726444283e-01  9.8985068792791486e-01  9.9054654315209145e-01  9.8985008459546198e-01  9.8957406019455663e-01  9.8846276711965320e-01  9.8672093836747721e-01  9.8467011159058915e-01  9.8255483438171565e-01  9.8053099799000831e-01  9.7868541141539134e-01  9.7705716710294643e-01  9.7565484416393500e-01  9.7446893510486221e-01  9.7348029961722393e-01  9.7266563800762962e-01  9.7200085555650062e-01  9.7146299532610925e-01  9.7103123554398252e-01  9.7068730076535159e-01  9.7041552486085914e-01  9.7020272326382762e-01  9.7003797525886060e-01  9.6991237834212540e-01  9.6981881087406852e-01  9.6975172256531883e-01  9.6970696197559803e-01  9.6968164415178038e-01  9.6967405837276610e-01  9.6968361471909581e-01  9.6971082814211951e-01  9.6975733934378783e-01  9.6982597265662529e-01  9.6992083182043376e-01  9.7004743463741760e-01  9.7021288639990644e-01  9.7042608899462091e-01  9.7069797668150648e-01  9.7104175929156999e-01  9.7147313696510462e-01  9.7201042474847033e-01  9.7267448658048994e-01  9.7348832148271658e-01  9.7447606407830900e-01  9.7566105032982320e-01  9.7706245239805001e-01  9.7868980508061543e-01  9.8053455249274524e-01  9.8255762234812405e-01  9.8467222420736844e-01  9.8672248561217835e-01  9.8846388000465402e-01  9.8957489397218590e-01  9.8985082053826956e-01  9.8812054118280657e-01  9.8846346215322967e-01  9.8850895119568638e-01  9.8790012368416014e-01  9.8679604235569240e-01  9.8542779909050149e-01  9.8398003868735440e-01  9.8257486524281890e-01  9.8128265090024813e-01  9.8013701802124631e-01  9.7914770405284468e-01  9.7831010458222134e-01  9.7761183291455844e-01  9.7703698450559384e-01  9.7656876457911646e-01  9.7619100523855329e-01  9.7588896004174286e-01  9.7564964842844148e-01  9.7546193445524509e-01  9.7531646080274914e-01  9.7520551478727957e-01  9.7512287317066770e-01  9.7506365285225205e-01  9.7502418196162133e-01  9.7500189820591165e-01  9.7499527697272326e-01  9.7500378953053757e-01  9.7502789090106345e-01  9.7506903699515335e-01  9.7512973089951116e-01  9.7521359829498588e-01  9.7532549135762614e-01  9.7547161850771225e-01  9.7565969319696244e-01  9.7589908741292486e-01  9.7620096312227000e-01  9.7657833521887205e-01  9.7704598960355082e-01  9.7762013574636220e-01  9.7831760952091129e-01  9.7915435408228646e-01  9.8014279090040035e-01  9.8128755465315443e-01  9.8257893361304927e-01  9.8398332712559022e-01  9.8543038174849218e-01  9.8679801043831061e-01  9.8790158519409088e-01  9.8851003193117992e-01  9.8846430553737674e-01  9.8812130286927058e-01  9.8583844074587934e-01  9.8672284710621894e-01  9.8790128850431469e-01  9.8851376733579455e-01  9.8849478291697379e-01  9.8801515663864126e-01  9.8726800560786443e-01  9.8640545502194710e-01  9.8553028743790450e-01  9.8470443469489777e-01  9.8396042861522237e-01  9.8331135123253743e-01  9.8275830449213941e-01  9.8229559730757054e-01  9.8191415427431583e-01  9.8160364745002082e-01  9.8135375820121729e-01  9.8115487093771336e-01  9.8099841097699936e-01  9.8087697021376996e-01  9.8078431474007055e-01  9.8071533412235234e-01  9.8066596880034318e-01  9.8063313682863118e-01  9.8061467151048620e-01  9.8060927561295763e-01  9.8061649453994726e-01  9.8063670915648471e-01  9.8067114819664891e-01  9.8072191975408973e-01  9.8079206068030711e-01  9.8088560118867718e-01  9.8100763884469644e-01  9.8116441045956848e-01  9.8136334089953370e-01  9.8161303269218447e-01  9.8192313711921120e-01  9.8230401303539416e-01  9.8276603006714103e-01  9.8331830419178567e-01  9.8396656402609062e-01  9.8470974088603536e-01  9.8553478119878246e-01  9.8640917690297192e-01  9.8727101584969801e-01  9.8801753211367205e-01  9.8849661524433163e-01  9.8851516195417255e-01  9.8790236378752538e-01  9.8672373112102085e-01  9.8583925999909960e-01  9.8336031730847107e-01  9.8467388818857760e-01  9.8679894515577737e-01  9.8849642084942735e-01  9.8949174546910956e-01  9.8987398861352105e-01  9.8982371982284278e-01  9.8950995037230671e-01  9.8906104897490466e-01  9.8856415774712592e-01  9.8807342977686841e-01  9.8761936234137260e-01  9.8721664983414414e-01  9.8687004176806925e-01  9.8657842195731871e-01  9.8633751258981484e-01  9.8614159201280160e-01  9.8598453932798269e-01  9.8586043738915385e-01  9.8576389692287913e-01  9.8569021191553130e-01  9.8563541847136382e-01  9.8559630297608081e-01  9.8557038760759741e-01  9.8555590957146122e-01  9.8555180304204892e-01  9.8555768828779633e-01  9.8557386982439787e-01  9.8560134387161225e-01  9.8564181420051378e-01  9.8569771399094208e-01  9.8577222886600391e-01  9.8586931199226135e-01  9.8599367496299883e-01  9.8615072670434145e-01  9.8634641497277653e-01  9.8658689868882510e-01  9.8687794139002660e-01  9.8722386343430546e-01  9.8762582160888146e-01  9.8807910318638525e-01  9.8856904564482972e-01  9.8906517829998519e-01  9.8951336964920433e-01  9.8982649491296737e-01  9.8987619951128303e-01  9.8949348412296878e-01  9.8849778948747213e-01  9.8680005389096215e-01  9.8467484915692460e-01  9.8336122913976798e-01  9.8091803735553285e-01  9.8256133846604454e-01  9.8543319111297367e-01  9.8801904374368998e-01  9.8987608598497689e-01  9.9101368286015623e-01  9.9158898834983877e-01  9.9177652712011666e-01  9.9172179653316173e-01  9.9153159682573799e-01  9.9127824040177970e-01  9.9100751287949795e-01  9.9074638359046840e-01  9.9050920652338603e-01  9.9030227541097215e-01  9.9012698720754289e-01  9.8998195059507377e-01  9.8986434341998286e-01  9.8977075822242955e-01  9.8969771099988091e-01  9.8964193565679781e-01  9.8960054678568143e-01  9.8957112482313692e-01  9.8955175777897308e-01  9.8954106035895317e-01  9.8953818253308856e-01  9.8954281400698585e-01  9.8955518753058358e-01  9.8957608164413546e-01  9.8960682155117097e-01  9.8964927458768337e-01  9.8970583343843466e-01  9.8977937491145562e-01  9.8987317356880589e-01  9.8999073634587431e-01  9.9013550458167132e-01  9.9031034132850737e-01  9.9051668196883247e-01  9.9075317338304114e-01  9.9101356276617492e-01  9.9128353232090782e-01  9.9153614320445060e-01  9.9172563440884742e-01  9.9177971273845822e-01  9.9159159269985264e-01  9.9101578834710058e-01  9.8987778406731119e-01  9.8802043279744223e-01  9.8543437299648540e-01  9.8256241093003660e-01  9.8091907394461697e-01  9.7864732030418489e-01  9.8054135665239506e-01  9.8398891352016393e-01  9.8727496237829515e-01  9.8982854398886599e-01  9.9159151810310064e-01  9.9269546051364499e-01  9.9331357807258069e-01  9.9360159153737571e-01  9.9368044648400389e-01  9.9363661012417004e-01  9.9352835982934651e-01  9.9339300858611701e-01  9.9325317481551101e-01  9.9312161973510293e-01  9.9300474065583177e-01  9.9290498534588489e-01  9.9282246691797471e-01  9.9275601544170888e-01  9.9270384699649061e-01  9.9266398058848526e-01  9.9263449329618603e-01  9.9261367419716551e-01  9.9260011638179524e-01  9.9259277169607074e-01  9.9259098299849657e-01  9.9259450221347778e-01  9.9260349815904081e-01  9.9261855507950048e-01  9.9264066021054653e-01  9.9267117576787700e-01  9.9271178664969328e-01  9.9276440890326556e-01  9.9283103442351894e-01  9.9291347292649534e-01  9.9301293115561717e-01  9.9312933953040394e-01  9.9326029635549273e-01  9.9339944930875523e-01  9.9353407829322482e-01  9.9364160032884152e-01  9.9368473134983304e-01  9.9360521641198996e-01  9.9331660495498464e-01  9.9269796345157912e-01  9.9159357990986730e-01  9.8983025399031199e-01  9.8727641427025881e-01  9.8399020151670791e-01  9.8054256661356787e-01  9.7864850491818656e-01  9.7661674496160311e-01  9.7870107473408829e-01  9.8258851487100762e-01  9.8641657050389953e-01  9.8951836708147145e-01  9.9178222112486192e-01  9.9331650884183087e-01  9.9429007833521710e-01  9.9486424478215152e-01  9.9516968093870750e-01  9.9530340296967201e-01  9.9533343838384580e-01  9.9530542611912498e-01  9.9524878191362975e-01  9.9518166825616405e-01  9.9511470362931476e-01  9.9505360096611017e-01  9.9500098280635685e-01  9.9495759935043437e-01  9.9492313022871959e-01  9.9489670444577227e-01  9.9487723386058191e-01  9.9486362544718387e-01  9.9485491561086481e-01  9.9485035440276737e-01  9.9484945691327931e-01  9.9485203196244121e-01  9.9485819322989510e-01  9.9486835419892705e-01  9.9488320491907811e-01  9.9490366487732629e-01  9.9493080141121049e-01  9.9496569612757346e-01  9.9500923147884213e-01  9.9506175448139544e-01  9.9512255281180173e-01  9.9518904852453449e-01  9.9525557554456923e-01  9.9531156063190906e-01  9.9533888197169340e-01  9.9530815807140072e-01  9.9517377704700283e-01  9.9486773146219254e-01  9.9429301921854729e-01  9.9331897708445038e-01  9.9178429646092092e-01  9.8952013410301076e-01  9.8641811707022486e-01  9.8258992845209636e-01  9.7870243267992008e-01  9.7661808445089449e-01  9.7485099397743857e-01  9.7707995912125090e-01  9.8130271605405106e-01  9.8554697048984086e-01  9.8907421480525715e-01  9.9173155164695181e-01  9.9360808788391963e-01  9.9486754760054275e-01  9.9567409436195986e-01  9.9616496167561697e-01  9.9644484212762985e-01  9.9658916466369474e-01  9.9665007162682595e-01  9.9666239853136163e-01  9.9664868009065677e-01  9.9662299007396704e-01  9.9659373667250384e-01  9.9656562796676940e-01  9.9654102030093428e-01  9.9652082684429766e-01  9.9650512169240069e-01  9.9649353740712698e-01  9.9648552417383007e-01  9.9648051675106808e-01  9.9647803984165806e-01  9.9647777180000519e-01  9.9647957912527962e-01  9.9648352862538669e-01  9.9648987945778389e-01  9.9649905276002126e-01  9.9651157174682081e-01  9.9652795938590366e-01  9.9654857320916812e-01  9.9657334621530969e-01  9.9660138757141492e-01  9.9663037519067899e-01  9.9665564285068176e-01  9.9666882721287509e-01  9.9665589814560263e-01  9.9659436005927959e-01  9.9644940994527786e-01  9.9616893049815192e-01  9.9567751063031240e-01  9.9487046962801018e-01  9.9361058165109817e-01  9.9173368855105837e-01  9.8907607095456229e-01  9.8554862626984885e-01  9.8130425331301974e-01  9.7708145102603017e-01  9.7485246938566383e-01  9.7334780638992591e-01  9.7568701031822203e-01  9.8016553443292043e-01  9.8472845993685210e-01  9.8858356713295426e-01  9.9154662176947184e-01  9.9369142995869331e-01  9.9517691974040445e-01  9.9616860782640437e-01  9.9680815128084488e-01  9.9720577798000254e-01  9.9744244978909402e-01  9.9757529202293649e-01  9.9764336915639729e-01  9.9767267476951615e-01  9.9768004541346567e-01  9.9767606366306760e-01  9.9766713520936612e-01  9.9765693871904770e-01  9.9764742005526597e-01  9.9763946459231290e-01  9.9763334571414097e-01  9.9762901877689292e-01  9.9762630858936518e-01  9.9762502380834472e-01  9.9762502175868517e-01  9.9762624006177725e-01  9.9762870534723758e-01  9.9763252312590023e-01  9.9763784625799856e-01  9.9764481247867420e-01  9.9765343420399000e-01  9.9766341580720908e-01  9.9767386338751274e-01  9.9768283778491484e-01  9.9768668115637682e-01  9.9767901942277115e-01  9.9764930778355576e-01  9.9758074878449221e-01  9.9744738512611475e-01  9.9721018293953878e-01  9.9681204048623873e-01  9.9617201252999588e-01  9.9517988213981368e-01  9.9369399958064297e-01  9.9154885423288730e-01  9.8858552491031326e-01  9.8473021368836877e-01  9.8016716175572061e-01  9.7568858582564433e-01  9.7334936046072396e-01  9.7208971412151624e-01  9.7451318608682835e-01  9.7918714506653648e-01  9.8399397835651103e-01  9.8810095708696022e-01  9.9130009864601309e-01  9.9365333282005219e-01  9.9531551594366796e-01  9.9645275381169784e-01  9.9720971986426632e-01  9.9770063175448886e-01  9.9801055493827329e-01  9.9820038337975747e-01  9.9831242659032660e-01  9.9837536163145224e-01  9.9840818766891348e-01  9.9842320450866784e-01  9.9842817516742122e-01  9.9842785793201205e-01  9.9842507244136358e-01  9.9842142941242173e-01  9.9841781942188712e-01  9.9841472862417591e-01  9.9841243002072555e-01  9.9841108699709635e-01  9.9841079883250528e-01  9.9841161253032418e-01  9.9841351873590434e-01  9.9841644027047827e-01  9.9842021042026585e-01  9.9842452643105950e-01  9.9842885346233079e-01  9.9843224588346124e-01  9.9843304457827864e-01  9.9842839776530523e-01  9.9841353549976275e-01  9.9838070255417277e-01  9.9831762159327497e-01  9.9820532417686492e-01  9.9801516599178475e-01  9.9770486750759835e-01  9.9721355919830501e-01  9.9645619377577799e-01  9.9531856649664485e-01  9.9365601383067370e-01  9.9130243976920196e-01  9.8810300028524800e-01  9.8399578156425849e-01  9.7918878333944448e-01  9.7451474287068462e-01  9.7209123486448190e-01  9.7105181018064379e-01  9.7353985054460546e-01  9.7836341935395343e-01  9.8335705320496158e-01  9.8765729967954607e-01  9.9103816066416250e-01  9.9355244203879756e-01  9.9535170433087794e-01  9.9660226756951986e-01  9.9745089121670838e-01  9.9801467410983424e-01  9.9838170655213698e-01  9.9861569725327193e-01  9.9876140061004670e-01  9.9884952669960836e-01  9.9890072004719932e-01  9.9892859618474272e-01  9.9894197661478079e-01  9.9894649574896954e-01  9.9894573588286006e-01  9.9894201223097234e-01  9.9893689601778846e-01  9.9893153745441510e-01  9.9892683509021041e-01  9.9892349271647951e-01  9.9892200552863430e-01  9.9892261721697806e-01  9.9892528301345496e-01  9.9892965790992183e-01  9.9893510684419418e-01  9.9894071095974246e-01  9.9894522737915603e-01  9.9894695170760894e-01  9.9894342989074525e-01  9.9893096279544358e-01  9.9890383652163617e-01  9.9885319039835851e-01  9.9876540396711699e-01  9.9861985138118947e-01  9.9838585361182308e-01  9.9801869046254099e-01  9.9745468457797859e-01  9.9660577151927032e-01  9.9535487304431891e-01  9.9355524733551936e-01  9.9104059258094745e-01  9.8765937068267096e-01  9.8335880460138092e-01  9.7836492581519807e-01  9.7354121400810545e-01  9.7105310963077474e-01  9.7020666116728627e-01  9.7274424074546417e-01  9.7768247832056865e-01  9.8281926390478769e-01  9.8726773960362169e-01  9.9078820276562363e-01  9.9342647071836765e-01  9.9533149279983035e-01  9.9666961780035035e-01  9.9758905675811671e-01  9.9820898129185354e-01  9.9861968394724743e-01  9.9888693100676262e-01  9.9905726045144183e-01  9.9916285462493815e-01  9.9922553819102866e-01  9.9925986809948475e-01  9.9927544229026444e-01  9.9927859052514989e-01  9.9927359283991901e-01  9.9926353405512880e-01  9.9925086570044053e-01  9.9923772095777319e-01  9.9922601999845906e-01  9.9921741237528405e-01  9.9921312213720681e-01  9.9921377578268000e-01  9.9921928838653784e-01  9.9922885288306285e-01  9.9924102889803690e-01  9.9925387863523263e-01  9.9926506614022403e-01  9.9927183015618859e-01  9.9927075320622138e-01  9.9925726540609316e-01  9.9922482631307286e-01  9.9916371458570563e-01  9.9905932541078923e-01  9.9888984044206508e-01  9.9862311528161940e-01  9.9821266294690558e-01  9.9759276873196079e-01  9.9667318589261833e-01  9.9533478154209365e-01  9.9342937865414005e-01  9.9079066229931256e-01  9.8726972215235120e-01  9.8282078916846694e-01  9.7768362328921388e-01  9.7274513831991716e-01  9.7020744860372610e-01  9.6952724083544595e-01  9.7210282114998203e-01  9.7712894792868921e-01  9.8237542064477745e-01  9.8693750170820815e-01  9.9056503023663378e-01  9.9329846190441995e-01  9.9528468566443540e-01  9.9668997455245822e-01  9.9766353310717204e-01  9.9832599249217957e-01  9.9876919676714460e-01  9.9906034238067309e-01  9.9924717210315628e-01  9.9936281741521793e-01  9.9942981778921380e-01  9.9946327123187839e-01  9.9947323574235281e-01  9.9946653779198913e-01  9.9944811994972027e-01  9.9942201200116787e-01  9.9939196165282385e-01  9.9936173098746639e-01  9.9933506795082239e-01  9.9931540249325757e-01  9.9930538026515081e-01  9.9930639972276902e-01  9.9931832298661039e-01  9.9933946811835794e-01  9.9936687884918263e-01  9.9939675557772700e-01  9.9942486749482340e-01  9.9944676898559837e-01  9.9945769539787477e-01  9.9945207479085940e-01  9.9942262919771274e-01  9.9935903713005614e-01  9.9924609495514316e-01  9.9906126831742426e-01  9.9877149479461014e-01  9.9832912755856607e-01  9.9766706864672372e-01  9.9669356245078566e-01  9.9528805277293164e-01  9.9330139936681239e-01  9.9056738941596112e-01  9.8693919835981736e-01  9.8237644660692747e-01  9.7712938582588460e-01  9.7210285065553026e-01  9.6952708993368453e-01  9.6898853864563761e-01  9.7159320285139084e-01  9.7668657402955950e-01  9.8201696142944461e-01  9.8666595935390677e-01  9.9037540342326780e-01  9.9318161534170468e-01  9.9522984153817651e-01  9.9668619949153470e-01  9.9770052853097924e-01  9.9839442341447582e-01  9.9886072918167246e-01  9.9916750847505875e-01  9.9936314684112526e-01  9.9948116846999113e-01  9.9954428145023388e-01  9.9956760669143740e-01  9.9956121404536602e-01  9.9953212167846694e-01  9.9948587589552973e-01  9.9942775477419665e-01  9.9936355976454461e-01  9.9929990940970492e-01  9.9924396571677443e-01  9.9920262729820253e-01  9.9918139154903207e-01  9.9918324318790464e-01  9.9920796613850615e-01  9.9925214131549400e-01  9.9930982660053824e-01  9.9937364717554833e-01  9.9943588632003433e-01  9.9948920467164648e-01  9.9952677220068575e-01  9.9954176695766128e-01  9.9952629721825459e-01  9.9946981547092029e-01  9.9935703737463411e-01  9.9916529996913861e-01  9.9886123666721971e-01  9.9839666071714162e-01  9.9770370525276941e-01  9.9668969643013938e-01  9.9523318074351053e-01  9.9318443512407784e-01  9.9037744420800766e-01  9.8666706309300756e-01  9.8201708437893287e-01  9.7668580840482577e-01  9.7159179471431512e-01  9.6898684838366200e-01  9.6856831278849520e-01  9.7119512332375291e-01  9.7633972285165960e-01  9.8173406827785237e-01  9.8644932371742000e-01  9.9022118681873872e-01  9.9308276601251533e-01  9.9517796609684217e-01  9.9667266498538465e-01  9.9771702683518271e-01  9.9843317242441598e-01  9.9891443501223842e-01  9.9922917531648947e-01  9.9942579778007279e-01  9.9953753167830517e-01  9.9958650141659888e-01  9.9958705794807934e-01  9.9954851964384128e-01  9.9947749800416497e-01  9.9937991761940581e-01  9.9926271076370610e-01  9.9913501090820356e-01  9.9900855155361534e-01  9.9889699075966087e-01  9.9881410548899985e-01  9.9877121361852128e-01  9.9877460829968467e-01  9.9882395098866894e-01  9.9891227700118024e-01  9.9902761295796516e-01  9.9915554443257837e-01  9.9928176695343407e-01  9.9939381013608963e-01  9.9948155855549781e-01  9.9953661747133726e-01  9.9955080004062979e-01  9.9951402212884410e-01  9.9941176383950014e-01  9.9922209684237728e-01  9.9891216206691913e-01  9.9843396908216853e-01  9.9771954094926985e-01  9.9667586622083060e-01  9.9518107971572045e-01  9.9308521822142759e-01  9.9022256976528822e-01  9.8644938355748579e-01  9.8173271636987736e-01  9.7633706558596511e-01  9.7119149694501294e-01  9.6856426244636851e-01  9.6824731461279978e-01  9.7089083589251879e-01  9.7607415493909366e-01  9.8151690943921299e-01  9.8628234264450498e-01  9.9010143885605151e-01  9.9300477925660813e-01  9.9513512941082538e-01  9.9665802379842294e-01  9.9772365480035952e-01  9.9845424274528249e-01  9.9894307630416290e-01  9.9925816898759368e-01  9.9944716013365653e