<?xml version="1.0"?>
<VTKFile type="UnstructuredGrid"  version="0.1"  >
<UnstructuredGrid>
<Piece  NumberOfPoints="5101" NumberOfCells="10000">
<Points>
<DataArray  type="Float64"  NumberOfComponents="3"  format="ascii">0 0 0  0.2 0 0  0.4 0 0  0.6 0 0  0.8 0 0  1 0 0  1.2 0 0  1.4 0 0  1.6 0 0  1.8 0 0  2 0 0  2.2 0 0  2.4 0 0  2.6 0 0  2.8 0 0  3 0 0  3.2 0 0  3.4 0 0  3.6 0 0  3.8 0 0  4 0 0  4.2 0 0  4.4 0 0  4.6 0 0  4.8 0 0  5 0 0  5.2 0 0  5.4 0 0  5.6 0 0  5.8 0 0  6 0 0  6.2 0 0  6.4 0 0  6.6 0 0  6.8 0 0  7 0 0  7.2 0 0  7.4 0 0  7.6 0 0  7.8 0 0  8 0 0  8.199999999999999 0 0  8.4 0 0  8.6 0 0  8.800000000000001 0 0  9 0 0  9.199999999999999 0 0  9.4 0 0  9.6 0 0  9.800000000000001 0 0  10 0 0  0 0.2 0  0.2 0.2 0  0.4 0.2 0  0.6 0.2 0  0.8 0.2 0  1 0.2 0  1.2 0.2 0  1.4 0.2 0  1.6 0.2 0  1.8 0.2 0  2 0.2 0  2.2 0.2 0  2.4 0.2 0  2.6 0.2 0  2.8 0.2 0  3 0.2 0  3.2 0.2 0  3.4 0.2 0  3.6 0.2 0  3.8 0.2 0  4 0.2 0  4.2 0.2 0  4.4 0.2 0  4.6 0.2 0  4.8 0.2 0  5 0.2 0  5.2 0.2 0  5.4 0.2 0  5.6 0.2 0  5.8 0.2 0  6 0.2 0  6.2 0.2 0  6.4 0.2 0  6.6 0.2 0  6.8 0.2 0  7 0.2 0  7.2 0.2 0  7.4 0.2 0  7.6 0.2 0  7.8 0.2 0  8 0.2 0  8.199999999999999 0.2 0  8.4 0.2 0  8.6 0.2 0  8.800000000000001 0.2 0  9 0.2 0  9.199999999999999 0.2 0  9.4 0.2 0  9.6 0.2 0  9.800000000000001 0.2 0  10 0.2 0  0 0.4 0  0.2 0.4 0  0.4 0.4 0  0.6 0.4 0  0.8 0.4 0  1 0.4 0  1.2 0.4 0  1.4 0.4 0  1.6 0.4 0  1.8 0.4 0  2 0.4 0  2.2 0.4 0  2.4 0.4 0  2.6 0.4 0  2.8 0.4 0  3 0.4 0  3.2 0.4 0  3.4 0.4 0  3.6 0.4 0  3.8 0.4 0  4 0.4 0  4.2 0.4 0  4.4 0.4 0  4.6 0.4 0  4.8 0.4 0  5 0.4 0  5.2 0.4 0  5.4 0.4 0  5.6 0.4 0  5.8 0.4 0  6 0.4 0  6.2 0.4 0  6.4 0.4 0  6.6 0.4 0  6.8 0.4 0  7 0.4 0  7.2 0.4 0  7.4 0.4 0  7.6 0.4 0  7.8 0.4 0  8 0.4 0  8.199999999999999 0.4 0  8.4 0.4 0  8.6 0.4 0  8.800000000000001 0.4 0  9 0.4 0  9.199999999999999 0.4 0  9.4 0.4 0  9.6 0.4 0  9.800000000000001 0.4 0  10 0.4 0  0 0.6 0  0.2 0.6 0  0.4 0.6 0  0.6 0.6 0  0.8 0.6 0  1 0.6 0  1.2 0.6 0  1.4 0.6 0  1.6 0.6 0  1.8 0.6 0  2 0.6 0  2.2 0.6 0  2.4 0.6 0  2.6 0.6 0  2.8 0.6 0  3 0.6 0  3.2 0.6 0  3.4 0.6 0  3.6 0.6 0  3.8 0.6 0  4 0.6 0  4.2 0.6 0  4.4 0.6 0  4.6 0.6 0  4.8 0.6 0  5 0.6 0  5.2 0.6 0  5.4 0.6 0  5.6 0.6 0  5.8 0.6 0  6 0.6 0  6.2 0.6 0  6.4 0.6 0  6.6 0.6 0  6.8 0.6 0  7 0.6 0  7.2 0.6 0  7.4 0.6 0  7.6 0.6 0  7.8 0.6 0  8 0.6 0  8.199999999999999 0.6 0  8.4 0.6 0  8.6 0.6 0  8.800000000000001 0.6 0  9 0.6 0  9.199999999999999 0.6 0  9.4 0.6 0  9.6 0.6 0  9.800000000000001 0.6 0  10 0.6 0  0 0.8 0  0.2 0.8 0  0.4 0.8 0  0.6 0.8 0  0.8 0.8 0  1 0.8 0  1.2 0.8 0  1.4 0.8 0  1.6 0.8 0  1.8 0.8 0  2 0.8 0  2.2 0.8 0  2.4 0.8 0  2.6 0.8 0  2.8 0.8 0  3 0.8 0  3.2 0.8 0  3.4 0.8 0  3.6 0.8 0  3.8 0.8 0  4 0.8 0  4.2 0.8 0  4.4 0.8 0  4.6 0.8 0  4.8 0.8 0  5 0.8 0  5.2 0.8 0  5.4 0.8 0  5.6 0.8 0  5.8 0.8 0  6 0.8 0  6.2 0.8 0  6.4 0.8 0  6.6 0.8 0  6.8 0.8 0  7 0.8 0  7.2 0.8 0  7.4 0.8 0  7.6 0.8 0  7.8 0.8 0  8 0.8 0  8.199999999999999 0.8 0  8.4 0.8 0  8.6 0.8 0  8.800000000000001 0.8 0  9 0.8 0  9.199999999999999 0.8 0  9.4 0.8 0  9.6 0.8 0  9.800000000000001 0.8 0  10 0.8 0  0 1 0  0.2 1 0  0.4 1 0  0.6 1 0  0.8 1 0  1 1 0  1.2 1 0  1.4 1 0  1.6 1 0  1.8 1 0  2 1 0  2.2 1 0  2.4 1 0  2.6 1 0  2.8 1 0  3 1 0  3.2 1 0  3.4 1 0  3.6 1 0  3.8 1 0  4 1 0  4.2 1 0  4.4 1 0  4.6 1 0  4.8 1 0  5 1 0  5.2 1 0  5.4 1 0  5.6 1 0  5.8 1 0  6 1 0  6.2 1 0  6.4 1 0  6.6 1 0  6.8 1 0  7 1 0  7.2 1 0  7.4 1 0  7.6 1 0  7.8 1 0  8 1 0  8.199999999999999 1 0  8.4 1 0  8.6 1 0  8.800000000000001 1 0  9 1 0  9.199999999999999 1 0  9.4 1 0  9.6 1 0  9.800000000000001 1 0  10 1 0  0 1.2 0  0.2 1.2 0  0.4 1.2 0  0.6 1.2 0  0.8 1.2 0  1 1.2 0  1.2 1.2 0  1.4 1.2 0  1.6 1.2 0  1.8 1.2 0  2 1.2 0  2.2 1.2 0  2.4 1.2 0  2.6 1.2 0  2.8 1.2 0  3 1.2 0  3.2 1.2 0  3.4 1.2 0  3.6 1.2 0  3.8 1.2 0  4 1.2 0  4.2 1.2 0  4.4 1.2 0  4.6 1.2 0  4.8 1.2 0  5 1.2 0  5.2 1.2 0  5.4 1.2 0  5.6 1.2 0  5.8 1.2 0  6 1.2 0  6.2 1.2 0  6.4 1.2 0  6.6 1.2 0  6.8 1.2 0  7 1.2 0  7.2 1.2 0  7.4 1.2 0  7.6 1.2 0  7.8 1.2 0  8 1.2 0  8.199999999999999 1.2 0  8.4 1.2 0  8.6 1.2 0  8.800000000000001 1.2 0  9 1.2 0  9.199999999999999 1.2 0  9.4 1.2 0  9.6 1.2 0  9.800000000000001 1.2 0  10 1.2 0  0 1.4 0  0.2 1.4 0  0.4 1.4 0  0.6 1.4 0  0.8 1.4 0  1 1.4 0  1.2 1.4 0  1.4 1.4 0  1.6 1.4 0  1.8 1.4 0  2 1.4 0  2.2 1.4 0  2.4 1.4 0  2.6 1.4 0  2.8 1.4 0  3 1.4 0  3.2 1.4 0  3.4 1.4 0  3.6 1.4 0  3.8 1.4 0  4 1.4 0  4.2 1.4 0  4.4 1.4 0  4.6 1.4 0  4.8 1.4 0  5 1.4 0  5.2 1.4 0  5.4 1.4 0  5.6 1.4 0  5.8 1.4 0  6 1.4 0  6.2 1.4 0  6.4 1.4 0  6.6 1.4 0  6.8 1.4 0  7 1.4 0  7.2 1.4 0  7.4 1.4 0  7.6 1.4 0  7.8 1.4 0  8 1.4 0  8.199999999999999 1.4 0  8.4 1.4 0  8.6 1.4 0  8.800000000000001 1.4 0  9 1.4 0  9.199999999999999 1.4 0  9.4 1.4 0  9.6 1.4 0  9.800000000000001 1.4 0  10 1.4 0  0 1.6 0  0.2 1.6 0  0.4 1.6 0  0.6 1.6 0  0.8 1.6 0  1 1.6 0  1.2 1.6 0  1.4 1.6 0  1.6 1.6 0  1.8 1.6 0  2 1.6 0  2.2 1.6 0  2.4 1.6 0  2.6 1.6 0  2.8 1.6 0  3 1.6 0  3.2 1.6 0  3.4 1.6 0  3.6 1.6 0  3.8 1.6 0  4 1.6 0  4.2 1.6 0  4.4 1.6 0  4.6 1.6 0  4.8 1.6 0  5 1.6 0  5.2 1.6 0  5.4 1.6 0  5.6 1.6 0  5.8 1.6 0  6 1.6 0  6.2 1.6 0  6.4 1.6 0  6.6 1.6 0  6.8 1.6 0  7 1.6 0  7.2 1.6 0  7.4 1.6 0  7.6 1.6 0  7.8 1.6 0  8 1.6 0  8.199999999999999 1.6 0  8.4 1.6 0  8.6 1.6 0  8.800000000000001 1.6 0  9 1.6 0  9.199999999999999 1.6 0  9.4 1.6 0  9.6 1.6 0  9.800000000000001 1.6 0  10 1.6 0  0 1.8 0  0.2 1.8 0  0.4 1.8 0  0.6 1.8 0  0.8 1.8 0  1 1.8 0  1.2 1.8 0  1.4 1.8 0  1.6 1.8 0  1.8 1.8 0  2 1.8 0  2.2 1.8 0  2.4 1.8 0  2.6 1.8 0  2.8 1.8 0  3 1.8 0  3.2 1.8 0  3.4 1.8 0  3.6 1.8 0  3.8 1.8 0  4 1.8 0  4.2 1.8 0  4.4 1.8 0  4.6 1.8 0  4.8 1.8 0  5 1.8 0  5.2 1.8 0  5.4 1.8 0  5.6 1.8 0  5.8 1.8 0  6 1.8 0  6.2 1.8 0  6.4 1.8 0  6.6 1.8 0  6.8 1.8 0  7 1.8 0  7.2 1.8 0  7.4 1.8 0  7.6 1.8 0  7.8 1.8 0  8 1.8 0  8.199999999999999 1.8 0  8.4 1.8 0  8.6 1.8 0  8.800000000000001 1.8 0  9 1.8 0  9.199999999999999 1.8 0  9.4 1.8 0  9.6 1.8 0  9.800000000000001 1.8 0  10 1.8 0  0 2 0  0.2 2 0  0.4 2 0  0.6 2 0  0.8 2 0  1 2 0  1.2 2 0  1.4 2 0  1.6 2 0  1.8 2 0  2 2 0  2.2 2 0  2.4 2 0  2.6 2 0  2.8 2 0  3 2 0  3.2 2 0  3.4 2 0  3.6 2 0  3.8 2 0  4 2 0  4.2 2 0  4.4 2 0  4.6 2 0  4.8 2 0  5 2 0  5.2 2 0  5.4 2 0  5.6 2 0  5.8 2 0  6 2 0  6.2 2 0  6.4 2 0  6.6 2 0  6.8 2 0  7 2 0  7.2 2 0  7.4 2 0  7.6 2 0  7.8 2 0  8 2 0  8.199999999999999 2 0  8.4 2 0  8.6 2 0  8.800000000000001 2 0  9 2 0  9.199999999999999 2 0  9.4 2 0  9.6 2 0  9.800000000000001 2 0  10 2 0  0 2.2 0  0.2 2.2 0  0.4 2.2 0  0.6 2.2 0  0.8 2.2 0  1 2.2 0  1.2 2.2 0  1.4 2.2 0  1.6 2.2 0  1.8 2.2 0  2 2.2 0  2.2 2.2 0  2.4 2.2 0  2.6 2.2 0  2.8 2.2 0  3 2.2 0  3.2 2.2 0  3.4 2.2 0  3.6 2.2 0  3.8 2.2 0  4 2.2 0  4.2 2.2 0  4.4 2.2 0  4.6 2.2 0  4.8 2.2 0  5 2.2 0  5.2 2.2 0  5.4 2.2 0  5.6 2.2 0  5.8 2.2 0  6 2.2 0  6.2 2.2 0  6.4 2.2 0  6.6 2.2 0  6.8 2.2 0  7 2.2 0  7.2 2.2 0  7.4 2.2 0  7.6 2.2 0  7.8 2.2 0  8 2.2 0  8.199999999999999 2.2 0  8.4 2.2 0  8.6 2.2 0  8.800000000000001 2.2 0  9 2.2 0  9.199999999999999 2.2 0  9.4 2.2 0  9.6 2.2 0  9.800000000000001 2.2 0  10 2.2 0  0 2.4 0  0.2 2.4 0  0.4 2.4 0  0.6 2.4 0  0.8 2.4 0  1 2.4 0  1.2 2.4 0  1.4 2.4 0  1.6 2.4 0  1.8 2.4 0  2 2.4 0  2.2 2.4 0  2.4 2.4 0  2.6 2.4 0  2.8 2.4 0  3 2.4 0  3.2 2.4 0  3.4 2.4 0  3.6 2.4 0  3.8 2.4 0  4 2.4 0  4.2 2.4 0  4.4 2.4 0  4.6 2.4 0  4.8 2.4 0  5 2.4 0  5.2 2.4 0  5.4 2.4 0  5.6 2.4 0  5.8 2.4 0  6 2.4 0  6.2 2.4 0  6.4 2.4 0  6.6 2.4 0  6.8 2.4 0  7 2.4 0  7.2 2.4 0  7.4 2.4 0  7.6 2.4 0  7.8 2.4 0  8 2.4 0  8.199999999999999 2.4 0  8.4 2.4 0  8.6 2.4 0  8.800000000000001 2.4 0  9 2.4 0  9.199999999999999 2.4 0  9.4 2.4 0  9.6 2.4 0  9.800000000000001 2.4 0  10 2.4 0  0 2.6 0  0.2 2.6 0  0.4 2.6 0  0.6 2.6 0  0.8 2.6 0  1 2.6 0  1.2 2.6 0  1.4 2.6 0  1.6 2.6 0  1.8 2.6 0  2 2.6 0  2.2 2.6 0  2.4 2.6 0  2.6 2.6 0  2.8 2.6 0  3 2.6 0  3.2 2.6 0  3.4 2.6 0  3.6 2.6 0  3.8 2.6 0  4 2.6 0  4.2 2.6 0  4.4 2.6 0  4.6 2.6 0  4.8 2.6 0  5 2.6 0  5.2 2.6 0  5.4 2.6 0  5.6 2.6 0  5.8 2.6 0  6 2.6 0  6.2 2.6 0  6.4 2.6 0  6.6 2.6 0  6.8 2.6 0  7 2.6 0  7.2 2.6 0  7.4 2.6 0  7.6 2.6 0  7.8 2.6 0  8 2.6 0  8.199999999999999 2.6 0  8.4 2.6 0  8.6 2.6 0  8.800000000000001 2.6 0  9 2.6 0  9.199999999999999 2.6 0  9.4 2.6 0  9.6 2.6 0  9.800000000000001 2.6 0  10 2.6 0  0 2.8 0  0.2 2.8 0  0.4 2.8 0  0.6 2.8 0  0.8 2.8 0  1 2.8 0  1.2 2.8 0  1.4 2.8 0  1.6 2.8 0  1.8 2.8 0  2 2.8 0  2.2 2.8 0  2.4 2.8 0  2.6 2.8 0  2.8 2.8 0  3 2.8 0  3.2 2.8 0  3.4 2.8 0  3.6 2.8 0  3.8 2.8 0  4 2.8 0  4.2 2.8 0  4.4 2.8 0  4.6 2.8 0  4.8 2.8 0  5 2.8 0  5.2 2.8 0  5.4 2.8 0  5.6 2.8 0  5.8 2.8 0  6 2.8 0  6.2 2.8 0  6.4 2.8 0  6.6 2.8 0  6.8 2.8 0  7 2.8 0  7.2 2.8 0  7.4 2.8 0  7.6 2.8 0  7.8 2.8 0  8 2.8 0  8.199999999999999 2.8 0  8.4 2.8 0  8.6 2.8 0  8.800000000000001 2.8 0  9 2.8 0  9.199999999999999 2.8 0  9.4 2.8 0  9.6 2.8 0  9.800000000000001 2.8 0  10 2.8 0  0 3 0  0.2 3 0  0.4 3 0  0.6 3 0  0.8 3 0  1 3 0  1.2 3 0  1.4 3 0  1.6 3 0  1.8 3 0  2 3 0  2.2 3 0  2.4 3 0  2.6 3 0  2.8 3 0  3 3 0  3.2 3 0  3.4 3 0  3.6 3 0  3.8 3 0  4 3 0  4.2 3 0  4.4 3 0  4.6 3 0  4.8 3 0  5 3 0  5.2 3 0  5.4 3 0  5.6 3 0  5.8 3 0  6 3 0  6.2 3 0  6.4 3 0  6.6 3 0  6.8 3 0  7 3 0  7.2 3 0  7.4 3 0  7.6 3 0  7.8 3 0  8 3 0  8.199999999999999 3 0  8.4 3 0  8.6 3 0  8.800000000000001 3 0  9 3 0  9.199999999999999 3 0  9.4 3 0  9.6 3 0  9.800000000000001 3 0  10 3 0  0 3.2 0  0.2 3.2 0  0.4 3.2 0  0.6 3.2 0  0.8 3.2 0  1 3.2 0  1.2 3.2 0  1.4 3.2 0  1.6 3.2 0  1.8 3.2 0  2 3.2 0  2.2 3.2 0  2.4 3.2 0  2.6 3.2 0  2.8 3.2 0  3 3.2 0  3.2 3.2 0  3.4 3.2 0  3.6 3.2 0  3.8 3.2 0  4 3.2 0  4.2 3.2 0  4.4 3.2 0  4.6 3.2 0  4.8 3.2 0  5 3.2 0  5.2 3.2 0  5.4 3.2 0  5.6 3.2 0  5.8 3.2 0  6 3.2 0  6.2 3.2 0  6.4 3.2 0  6.6 3.2 0  6.8 3.2 0  7 3.2 0  7.2 3.2 0  7.4 3.2 0  7.6 3.2 0  7.8 3.2 0  8 3.2 0  8.199999999999999 3.2 0  8.4 3.2 0  8.6 3.2 0  8.800000000000001 3.2 0  9 3.2 0  9.199999999999999 3.2 0  9.4 3.2 0  9.6 3.2 0  9.800000000000001 3.2 0  10 3.2 0  0 3.4 0  0.2 3.4 0  0.4 3.4 0  0.6 3.4 0  0.8 3.4 0  1 
[...]
<PointData  Scalars="f_8"> 
<DataArray  type="Float64"  Name="f_8"  format="ascii">-1.2452018768967666e-02  -4.8368700512814704e-03  -1.4015094326235173e-03  -2.2467805512381127e-04  6.8428142503878413e-04  1.2980224975461597e-03  1.7513849167375508e-03  2.0924876620488889e-03  2.3540778410772937e-03  2.5574193861416078e-03  2.7168620813303197e-03  2.8423093770472987e-03  2.9405961934539063e-03  3.0163427469844448e-03  3.0725133251066749e-03  3.1108055225674432e-03  3.1319424764049801e-03  3.1359109065045398e-03  3.1221700453701075e-03  3.0898449016455031e-03  3.0379091381415703e-03  2.9653571251688194e-03  2.8713611210497204e-03  2.7554079123018028e-03  2.6174094214021820e-03  2.4577833583229727e-03  2.2775023643804302e-03  2.0781126247588827e-03  1.8617250819789532e-03  1.6309838992602411e-03  1.3890177310294969e-03  1.1393799120781802e-03  8.8598420753058672e-04  6.3304354138102314e-04  3.8502027863466414e-04  1.4659822138050603e-04  -7.7311429309416296e-05  -2.8151499340508575e-04  -4.6041248280991260e-04  -6.0777773157286207e-04  -7.1640117597338384e-04  -7.7752723021395800e-04  -7.7996723931308769e-04  -7.0866653233615351e-04  -5.4216638021788448e-04  -2.4795986345716733e-04  2.2149364719000996e-04  1.0001291437086676e-03  2.0596535197210516e-03  5.3932954956424865e-03  1.2870352378990356e-02  -9.4367924215227411e-02  -4.9758446848552913e-02  -2.5111223815587429e-02  -1.0298028318338887e-02  -5.8528642521414825e-04  6.1231204213974778e-03  1.0877543733426122e-02  1.4275487028196199e-02  1.6680949187082159e-02  1.8326365297368155e-02  1.9364435798922369e-02  1.9897082244676154e-02  1.9992939823168528e-02  1.9698695120216849e-02  1.9046940184206249e-02  1.8061953270510200e-02  1.6764160256867115e-02  1.5173661726911359e-02  1.3312991114272008e-02  1.1209138647099401e-02  8.8948083995708509e-03  6.4088604215770360e-03  3.7959193502625777e-03  1.1051953674715812e-03  -1.6113521073996640e-03  -4.3012927522961264e-03  -6.9141664706160958e-03  -9.4037823746469570e-03  -1.1730091944656447e-02  -1.3860417903367983e-02  -1.5769915465125434e-02  -1.7441246556959274e-02  -1.8863538249770665e-02  -2.0030756541635216e-02  -2.0939646490463690e-02  -2.1587368584675717e-02  -2.1968903994667610e-02  -2.2074213966517629e-02  -2.1885022766263668e-02  -2.1370940140231626e-02  -2.0484419081725356e-02  -1.9153690881546559e-02  -1.7272186710318268e-02  -1.4681719890261310e-02  -1.1144087895840945e-02  -6.2896665200141890e-03  4.8425659308236888e-04  1.0232717926910708e-02  2.5056492117316718e-02  4.9691904086372612e-02  9.4289297944749592e-02  -1.3368807335662611e-01  -7.8908683237867192e-02  -4.3435875459561256e-02  -1.9342251549100149e-02  -2.6918106529968213e-03  9.1428601797747221e-03  1.7667138145155640e-02  2.3822107990531062e-02  2.8209375022547663e-02  3.1224693367813802e-02  3.3132850796478278e-02  3.4112520472932617e-02  3.4284751791898688e-02  3.3732146298454585e-02  3.2512555564718583e-02  3.0669427076641109e-02  2.8239963645645995e-02  2.5261686123954446e-02  2.1777627556507070e-02  1.7840163300464337e-02  1.3513365608938715e-02  8.8737515398284120e-03  4.0093614707965982e-03  -9.8275429751006928e-04  -6.0003808171403212e-03  -1.0940872114119390e-02  -1.5706190959603312e-02  -2.0207617158930762e-02  -2.4369533751712125e-02  -2.8131843239249207e-02  -3.1450772905348041e-02  -3.4298052619156916e-02  -3.6658641767715085e-02  -3.8527307106606686e-02  -3.9904392222986959e-02  -4.0791073001046202e-02  -4.1184275963028323e-02  -4.1071264837565666e-02  -4.0423684919500137e-02  -3.9190586389667735e-02  -3.7289587808328278e-02  -3.4594799048204228e-02  -3.0919212832660654e-02  -2.5987617050346742e-02  -1.9392918383512606e-02  -1.0522175016175380e-02  1.5763817799004229e-03  1.8417809780145834e-02  4.2638333690249844e-02  7.8182426979626629e-02  1.3299245393910861e-01  -1.5608503975779664e-01  -9.8541813073064768e-02  -5.6691198158507643e-02  -2.6508777179532070e-02  -4.5822182062541985e-03  1.1466178088891631e-02  2.3267237958980173e-02  3.1917845354403229e-02  3.8161578951970095e-02  4.2505796744219858e-02  4.5297854736744574e-02  4.6775270773807512e-02  4.7099799270492113e-02  4.6381611162111952e-02  4.4697340502033084e-02  4.2104244210285920e-02  3.8651752608471437e-02  3.4391039261263370e-02  2.9382790875564255e-02  2.3703060301615220e-02  1.7446925306145104e-02  1.0729656285002286e-02  3.6852180353591302e-03  -3.5378239485161552e-03  -1.0782599056072628e-02  -1.7891705823460603e-02  -2.4715488696417254e-02  -3.1119736611316860e-02  -3.6991803770549038e-02  -4.2244407590913413e-02  -4.6816727975745126e-02  -5.0672828320170622e-02  -5.3797753348760267e-02  -5.6191867274338517e-02  -5.7864050721808752e-02  -5.8824285806708704e-02  -5.9075958931747524e-02  -5.8607939312145356e-02  -5.7386175677349230e-02  -5.5344197126537924e-02  -5.2371474855208086e-02  -4.8298020736396677e-02  -4.2872721072879788e-02  -3.5731481392402835e-02  -2.6348904847706956e-02  -1.3963515077354409e-02  2.5382751954807692e-03  2.4802120901154811e-02  5.5218171972434317e-02  9.7209631758527967e-02  1.5480879576044651e-01  -1.6941961705346417e-01  -1.1020047234302739e-01  -6.5103470873195277e-02  -3.1000235556841328e-02  -5.3425512938111873e-03  1.3953823406981541e-02  2.8436322040817742e-02  3.9227163254191663e-02  4.7127006548411808e-02  5.2701920234207639e-02  5.6348411008043130e-02  5.8340855477944389e-02  5.8866364267583259e-02  5.8051153969069652e-02  5.5981343365809920e-02  5.2720098856895804e-02  4.8322264988139761e-02  4.2846988187494939e-02  3.6368343935993697e-02  2.8983608614855001e-02  2.0818602587450847e-02  1.2029507138937256e-02  2.8007494636621056e-03  -6.6610541940176149e-03  -1.6136570755997261e-02  -2.5405550522030130e-02  -3.4259427024779930e-02  -4.2512997264679393e-02  -5.0013592092652430e-02  -5.6646575876587731e-02  -6.2336638205970227e-02  -6.7045001247460184e-02  -7.0763209201306451e-02  -7.3504484522394012e-02  -7.5293694304496089e-02  -7.6156800737134420e-02  -7.6110342905087516e-02  -7.5151091582632848e-02  -7.3245592523312905e-02  -7.0318890695402189e-02  -6.6241292834696222e-02  -6.0811528307263822e-02  -5.3734033334164946e-02  -4.4587238163423651e-02  -3.2778697715157540e-02  -1.7482038239493031e-02  2.4485589405563849e-03  2.8581006199792539e-02  6.3016115019706304e-02  1.0831485425008656e-01  1.6761570213000429e-01  -1.7691417972619050e-01  -1.1681120065846297e-01  -6.9682268272328707e-02  -3.3028363731852285e-02  -4.7173880495301338e-03  1.7049448427104041e-02  3.3691449083146273e-02  4.6290433551270743e-02  5.5649852005559691e-02  6.2354418743190823e-02  6.6821107908264968e-02  6.9340293282601717e-02  7.0108535055017379e-02  6.9255158048386237e-02  6.6864569972770557e-02  6.2995775721441508e-02  5.7699967137394913e-02  5.1036480187136780e-02  4.3086853845956334e-02  3.3966251045242681e-02  2.3831190628658329e-02  1.2882482248747551e-02  1.3625268216034309e-03  -1.0453243600789983e-02  -2.2270143735471801e-02  -3.3791646582467520e-02  -4.4738080816878571e-02  -5.4863917578260459e-02  -6.3971149592173399e-02  -7.1916982650964717e-02  -7.8615103324678803e-02  -8.4030875113577805e-02  -8.8171676909034047e-02  -9.1074060223272288e-02  -9.2789428968722387e-02  -9.3369618453266828e-02  -9.2853211624586901e-02  -9.1252825127566259e-02  -8.8543029518553432e-02  -8.4648084480348607e-02  -7.9428268537339045e-02  -7.2663232290940086e-02  -6.4030477246485168e-02  -5.3076788607763235e-02  -3.9180422331312241e-02  -2.1502602628385343e-02  1.0703231275945903e-03  2.9984771847243373e-02  6.7060943131701897e-02  1.1444699213301020e-01  1.7465392803989382e-01  -1.8044193385274546e-01  -1.1976305902700793e-01  -7.1330161119165680e-02  -3.2930809832993978e-02  -2.7007785619436648e-03  2.0956930355240492e-02  3.9339205132996290e-02  5.3465428274320805e-02  6.4113246437670024e-02  7.1859743029214662e-02  7.7120499202033996e-02  8.0183948189348639e-02  8.1240893131735673e-02  8.0410162796657428e-02  7.7761662325376887e-02  7.3337905030054329e-02  6.7174682183483408e-02  5.9320938240128948e-02  4.9857243194140741e-02  3.8911591085314917e-02  2.6670749221250682e-02  1.3385215665486689e-02  -6.3382244381338169e-04  -1.5026226774713351e-02  -2.9402647330250761e-02  -4.3369989116685194e-02  -5.6559000257999328e-02  -6.8649732020844415e-02  -7.9390924956180942e-02  -8.8610581752531212e-02  -9.6216747699088154e-02  -1.0218931848643339e-01  -1.0656505360381521e-01  -1.0941861552142261e-01  -1.1084236373645608e-01  -1.1092699693330350e-01  -1.0974423318643502e-01  -1.0733180165558640e-01  -1.0368025513324708e-01  -9.8720565556854156e-02  -9.2311123445006346e-02  -8.4222584736242057e-02  -7.4118969009859884e-02  -6.1533555332481921e-02  -4.5838625142550944e-02  -2.6209340805848511e-02  -1.5845826684284222e-03  2.9367517987080254e-02  6.8271188385462686e-02  1.1701077103777673e-01  1.7781380632097810e-01  -1.8114855356749723e-01  -1.2007681927575528e-01  -7.0735560376081766e-02  -3.1080923510143074e-02  5.8975073612605475e-04  2.5733565014736986e-02  4.5548041531904684e-02  6.0989430506055896e-02  7.2798045552701002e-02  8.1528434154536006e-02  8.7579750520882196e-02  9.1224195130353472e-02  9.2633055985553589e-02  9.1900899282777060e-02  8.9068888264660639e-02  8.4148194615478400e-02  7.7144101764557868e-02  6.8080738837330762e-02  5.7025491797816248e-02  4.4111140773840325e-02  2.9552893729366890e-02  1.3657041658729562e-02  -3.1817169896607034e-03  -2.0495932001435412e-02  -3.7773474597696678e-02  -5.4494798410649491e-02  -7.0173807143369349e-02  -8.4395539973097303e-02  -9.6844342238017467e-02  -1.0731824953178373e-01  -1.1572832733648732e-01  -1.2208471395082159e-01  -1.2647325271597246e-01  -1.2902743291998570e-01  -1.2989995066631363e-01  -1.2923696858787040e-01  -1.2715662286376983e-01  -1.2373192759741040e-01  -1.1897719845267929e-01  -1.1283651446122693e-01  -1.0517249766759389e-01  -9.5753715897177280e-02  -8.4239232856252996e-02  -7.0159241694738680e-02  -5.2891417607725262e-02  -3.1633777152620120e-02  -5.3765516022873001e-03  2.7121961400379282e-02  6.7352878137928923e-02  1.1704377141732859e-01  1.7825733442884040e-01  -1.7979355351995932e-01  -1.1843466651961274e-01  -6.8418390891189285e-02  -2.7807551577790197e-02  4.9978101895960239e-03  3.1358237377211912e-02  5.2395087393757103e-02  6.9009032815754448e-02  8.1900994458105003e-02  9.1595936323452365e-02  9.8467149758063907e-02  1.0275980786252618e-01  1.0461361104795566e-01  1.0408516143489288e-01  1.0117116294779789e-01  9.5833615070984840e-02  8.8027827093482794e-02  7.7733292693189349e-02  6.4986236105251616e-02  4.9911089618182650e-02  3.2746596303839026e-02  1.3861172994071781e-02  -6.2477414183259835e-03  -2.6973867776121974e-02  -4.7641827531934522e-02  -6.7561932567201680e-02  -8.6091291351442736e-02  -1.0269018780639581e-01  -1.1696335994645912e-01  -1.2867939514298068e-01  -1.3776672193947598e-01  -1.4428977431021306e-01  -1.4841226395318197e-01  -1.5035544562089564e-01  -1.5035810122703788e-01  -1.4864260100972648e-01  -1.4538880758693010e-01  -1.4071546984664035e-01  -1.3466740685234149e-01  -1.2720618445407153e-01  -1.1820194961442879e-01  -1.0742439322966767e-01  -9.4531304282674117e-02  -7.9053791042692584e-02  -6.0377995574975120e-02  -3.7724054701655775e-02  -1.0124097725944050e-02  2.3597873651482956e-02  6.4844038113685248e-02  1.1524462968673202e-01  1.7675989969442429e-01  -1.7690668028030690e-01  -1.1532440036577792e-01  -6.4773257907639922e-02  -2.3388562185918317e-02  1.0360966433272905e-02  3.7768446751610889e-02  5.9898195433491605e-02  7.7605095464704829e-02  9.1553436838258298e-02  1.0223668212589193e-01  1.0999719546879376e-01  1.1504552558985980e-01  1.1747954916652016e-01  1.1730449910333765e-01  1.1445542555065774e-01  1.0882383485305790e-01  1.0028998026754977e-01  8.8761371522386334e-02  7.4216399412763159e-02  5.6749573305040026e-02  3.6612109138559501e-02  1.4239294188035729e-02  -9.7446208360874118e-03  -3.4551117394097851e-02  -5.9283389433719136e-02  -8.3017515899551655e-02  -1.0489500794221746e-01  -1.2420839021800836e-01  -1.4046241651892136e-01  -1.5339992050864745e-01  -1.6299070601302282e-01  -1.6939066827779978e-01  -1.7288358569966017e-01  -1.7381875593884807e-01  -1.7255481296774300e-01  -1.6941556788508022e-01  -1.6465937090215468e-01  -1.5846036548028983e-01  -1.5089836961135381e-01  -1.4195371668944370e-01  -1.3150376647481854e-01  -1.1931854161397507e-01  -1.0505378647661585e-01  -8.8240562032310177e-02  -6.8271265758822280e-02  -4.4382703087840022e-02  -1.5637449875289037e-02  1.9094891853160729e-02  6.1157261910205679e-02  1.1211689906892834e-01  1.7386618047028907e-01  -1.7287674719870957e-01  -1.1111031201521526e-01  -6.0108385597351564e-02  -1.8059037131063955e-02  1.6521370011765710e-02  4.4878323465596545e-02  6.8034216641675901e-02  8.6808050057367553e-02  1.0183279004099854e-01  1.1357203814250912e-01  1.2233581891310895e-01  1.2829562978945383e-01  1.3149952924348773e-01  1.3188881031367070e-01  1.2931852228435084e-01  1.2358457693815161e-01  1.1446014688579685e-01  1.0174317521610476e-01  8.5314687172089163e-02  6.5204019935312468e-02  4.1652362789234149e-02  1.5161274696506629e-02  -1.3489785484189375e-02  -4.3270905124837035e-02  -7.2979935065950435e-02  -1.0136381746500960e-01  -1.2726094698018536e-01  -1.4973340761355441e-01  -1.6815911638194375e-01  -1.8226561787777809e-01  -1.9210452122216709e-01  -1.9798099802127198e-01  -2.0036083219713804e-01  -1.9977702179680520e-01  -1.9675146955893597e-01  -1.9173889057780591e-01  -1.8509293952242772e-01  -1.7705019049608633e-01  -1.6772594694606552e-01  -1.5711609671146692e-01  -1.4510042041478519e-01  -1.3144420759833053e-01  -1.1579635010194982e-01  -9.7683135829942924e-02  -7.6497771349751650e-02  -5.1486262552333913e-02  -2.1730644921698666e-02  1.3869427748426403e-02  5.6617550744734575e-02  1.0803897116480078e-01  1.6997810524126175e-01  -1.6800446850261200e-01  -1.0607792955416215e-01  -5.4674760015639708e-02  -1.2023411311005398e-02  2.3325984794881374e-02  5.2585451620990840e-02  7.6747732903154883e-02  9.6605631633923439e-02  1.1276783771573252e-01  1.2567269262140629e-01  1.3560002919033148e-01  1.4268150571402499e-01  1.4691054370447015e-01  1.4815393911705343e-01  1.4616829744925255e-01  1.4062544634200055e-01  1.3115153980613711e-01  1.1738407858915458e-01  9.9048718508973788e-02  7.6052762032737822e-02  4.8584499228719914e-02  1.7198423131714925e-02  -1.7140752823955038e-02  -5.3082264222496921e-02  -8.8996913143265577e-02  -1.2316009930554561e-01  -1.5397476730709103e-01  -1.8018002839540612e-01  -2.0099231210583141e-01  -2.1614795750222190e-01  -2.2584875320572384e-01  -2.3063950790462084e-01  -2.3125871941902265e-01  -2.2849895553608032e-01  -2.2309943183645625e-01  -2.1567782255459964e-01  -2.0669709049138357e-01  -1.9645763058057036e-01  -1.8510417366765708e-01  -1.7263867518435244e-01  -1.5893307813162247e-01  -1.4373834184494966e-01  -1.2668804160549954e-01  -1.0729613399904062e-01  -8.4949283932138991e-02  -5.8894610088971511e-02  -2.8223877658267289e-02  8.1450375048659224e-03  5.1489970865914482e-02  1.0330752559543727e-01  1.6540646924484267e-01  -1.6253533013247104e-01  -1.0046319857805648e-01  -4.8686942399615629e-02  -5.4669685935706614e-03  3.0622771193531229e-02  6.0771770542122662e-02  8.5953734825287856e-02  1.0694503851531591e-01  1.2433882699052477e-01  1.3855578247965791e-01  1.4985169946804533e-01  1.5832227188780754e-01  1.6390628809196855e-01  1.6638966119690768e-01  1.6541433754304224e-01  1.6049799230919440e-01  1.5107213458842661e-01  1.3654693013525160e-01  1.1640924968200801e-01  9.0354320045277797e-02  5.8439518282397171e-02  2.1232113282243684e-02  -2.0093814579726216e-02  -6.3762523272393082e-02  -1.0754026047143775e-01  -1.4901374601319245e-01  -1.8594642681861320e-01  -2.1661561602259166e-01  -2.4003310916828874e-01  -2.5599487633988488e-01  -2.6496905617791100e-01  -2.6788166502886535e-01  -2.6587577080540903e-01  -2.6010446040192453e-01  -2.5158787840495317e-01  -2.4113697013614008e-01  -2.2932994411856836e-01  -2.1652209746978865e-01  -2.0287157461507085e-01  -1.8836856309830308e-01  -1.7286050234572964e-01  -1.5606980116604288e-01  -1.3760309326580830e-01  -1.1695246816696073e-01  -9.3489779921067287e-02  -6.6455370485362708e-02  -3.4942496101215477e-02  2.1216706447293120e-03  4.5998636504607823e-02  9.8165142615518147e-02  1.6040233661295117e-01  -1.5668057432591162e-01  -9.4471483070683634e-02  -4.2337653379998078e-02  1.4348011132716346e-03  3.8255898422480158e-02  6.9301750519746796e-02  9.5536843607088681e-02  1.1773137737873891e-01  1.3647357315516437e-01  1.5217738676486514e-01  1.6508550515555998e-01  1.7526768263656581e-01  1.8261531617068563e-01  1.8683464235041708e-01  1.8744317863125701e-01  1.8377709751956703e-01  1.7502085284240232e-01  1.6027356970056958e-01  1.3866724372988873e-01  1.0954602884316414e-01  7.2699609333935530e-02  2.8614984153759206e-02  -2.1324404245986011e-02  -7.4787740809441866e-02  -1.2867689295199197e-01  -1.7955272717072077e-01  -2.2421722584046788e-01  -2.6027363271609522e-01  -2.8647910011659494e-01  -3.0279226374390278e-01  -3.1014598865943177e-01  -3.1006911851098573e-01  -3.0429800512670402e-01  -2.9447500485580691e-01  -2.8196861259625955e-01  -2.6780251515850184e-01  -2.5265930061033143e-01  -2.3692335069104814e-01  -2.2073616902764498e-01  -2.0404801821764987e-01  -1.8665827300193569e-01  -1.6824236585332508e-01  -1.4836608808311277e-01  -1.2648919435097192e-01  -1.0196051386023212e-01  -7.4006608120760653e-02  -4.1715658839270212e-02  -4.0176092877904817e-03  4.0339222736308779e-02  9.2817574615267406e-02  1.5517642313130880e-01  -1.5063056635866665e-01  -8.8289841585389245e-02  -3.5807610925680619e-02  8.5093333860705497e-03  4.6061530620107288e-02  7.8019854215685858e-02  1.0534907483191687e-01  1.2882417013929925e-01  1.4904106648090568e-01  1.6642154476611212e-01  1.8121167723463419e-01  1.9347313293484730e-01  2.0306741652651741e-01  2.0963465611826332e-01  2.1257130551795600e-01  2.1101554764937142e-01  2.0385551946285180e-01  1.8978307351406132e-01  1.6742198680509926e-01  1.3555834029827557e-01  9.3482675684130087e-02  4.1408978956742767e-02  -1.9134370356183886e-02  -8.5115015053763760e-02  -1.5219066378239796e-01  -2.1536216857212692e-01  -2.6994853623603593e-01  -3.1254705570756980e-01  -3.4161180778505296e-01  -3.5746919035488250e-01  -3.6185719555558521e-01  -3.5725225731872734e-01  -3.4624632884118106e-01  -3.3112298995621281e-01  -3.1365507858638736e-01  -2.9507096736687510e-01  -2.7611682968816392e-01  -2.5715522860534856e-01  -2.3826302127613164e-01  -2.1931108929880916e-01  -2.0002097628939375e-01  -1.7999994635221989e-01  -1.5875839417420071e-01  -1.3571383208418561e-01  -1.1018509934307928e-01  -8.1379650776126786e-02  -4.8376018154346972e-02  -1.0102603392311693e-02  3.4686660724012185e-02  8.7444293815153382e-02  1.4991088662095456e-01  -1.4456293444674781e-01  -8.2094538829936087e-02  -2.9271619568153193e-02  1.5582655273556694e-02  5.3865065122136360e-02  8.6748674943235765e-02  1.1520779827014586e-01  1.4003370690187117e-01  1.6184443836134138e-01  1.8108765957233128e-01  1.9803524565375116e-01  2.1276782209733386e-01  2.2514784518467892e-01  2.3478100622354042e-01  2.4096851646181186e-01  2.4265824888298068e-01  2.3841205973384005e-01  2.2642060200698014e-01  2.0461384724874840e-01  1.7092776570795362e-01  1.2377784142812512e-01  6.2731983550269835e-02  -1.0750477603769019e-02  -9.2813023615295961e-02  -1.7732088536685189e-01  -2.5685089789615617e-01  -3.2436910149806858e-01  -3.7493361996899355e-01  -4.0667603748071490e-01  -4.2069627094654699e-01  -4.2012338409243377e-01  -4.0890926233783592e-01  -3.9084672596217274e-01  -3.6901301501611322e-01  -3.4559772419282125e-01  -3.2197118647577039e-01  -2.9885529389456356e-01  -2.7650682096291340e-01  -2.5487026444579891e-01  -2.3368796345602735e-01  -2.1257057432746460e-01  -1.9103630814961903e-01  -1.6852764137755327e-01  -1.4441260783323578e-01  -1.1797585822369253e-01  -8.8403058067765841e-02  -5.47609755