<?xml version="1.0"?>
<VTKFile type="UnstructuredGrid"  version="0.1"  >
<UnstructuredGrid>
<Piece  NumberOfPoints="2111" NumberOfCells="4000">
<Points>
<DataArray  type="Float64"  NumberOfComponents="3"  format="ascii">0 0 0  0.05 0 0  0.1 0 0  0.15 0 0  0.2 0 0  0.25 0 0  0.3 0 0  0.35 0 0  0.4 0 0  0.45 0 0  0.5 0 0  0.55 0 0  0.6 0 0  0.65 0 0  0.7 0 0  0.75 0 0  0.8 0 0  0.85 0 0  0.9 0 0  0.95 0 0  1 0 0  1.05 0 0  1.1 0 0  1.15 0 0  1.2 0 0  1.25 0 0  1.3 0 0  1.35 0 0  1.4 0 0  1.45 0 0  1.5 0 0  1.55 0 0  1.6 0 0  1.65 0 0  1.7 0 0  1.75 0 0  1.8 0 0  1.85 0 0  1.9 0 0  1.95 0 0  2 0 0  2.05 0 0  2.1 0 0  2.15 0 0  2.2 0 0  2.25 0 0  2.3 0 0  2.35 0 0  2.4 0 0  2.45 0 0  2.5 0 0  2.55 0 0  2.6 0 0  2.65 0 0  2.7 0 0  2.75 0 0  2.8 0 0  2.85 0 0  2.9 0 0  2.95 0 0  3 0 0  3.05 0 0  3.1 0 0  3.15 0 0  3.2 0 0  3.25 0 0  3.3 0 0  3.35 0 0  3.4 0 0  3.45 0 0  3.5 0 0  3.55 0 0  3.6 0 0  3.65 0 0  3.7 0 0  3.75 0 0  3.8 0 0  3.85 0 0  3.9 0 0  3.95 0 0  4 0 0  4.05 0 0  4.1 0 0  4.15 0 0  4.2 0 0  4.25 0 0  4.3 0 0  4.35 0 0  4.4 0 0  4.45 0 0  4.5 0 0  4.55 0 0  4.6 0 0  4.65 0 0  4.7 0 0  4.75 0 0  4.8 0 0  4.85 0 0  4.9 0 0  4.95 0 0  5 0 0  0 0.03 0  0.05 0.03 0  0.1 0.03 0  0.15 0.03 0  0.2 0.03 0  0.25 0.03 0  0.3 0.03 0  0.35 0.03 0  0.4 0.03 0  0.45 0.03 0  0.5 0.03 0  0.55 0.03 0  0.6 0.03 0  0.65 0.03 0  0.7 0.03 0  0.75 0.03 0  0.8 0.03 0  0.85 0.03 0  0.9 0.03 0  0.95 0.03 0  1 0.03 0  1.05 0.03 0  1.1 0.03 0  1.15 0.03 0  1.2 0.03 0  1.25 0.03 0  1.3 0.03 0  1.35 0.03 0  1.4 0.03 0  1.45 0.03 0  1.5 0.03 0  1.55 0.03 0  1.6 0.03 0  1.65 0.03 0  1.7 0.03 0  1.75 0.03 0  1.8 0.03 0  1.85 0.03 0  1.9 0.03 0  1.95 0.03 0  2 0.03 0  2.05 0.03 0  2.1 0.03 0  2.15 0.03 0  2.2 0.03 0  2.25 0.03 0  2.3 0.03 0  2.35 0.03 0  2.4 0.03 0  2.45 0.03 0  2.5 0.03 0  2.55 0.03 0  2.6 0.03 0  2.65 0.03 0  2.7 0.03 0  2.75 0.03 0  2.8 0.03 0  2.85 0.03 0  2.9 0.03 0  2.95 0.03 0  3 0.03 0  3.05 0.03 0  3.1 0.03 0  3.15 0.03 0  3.2 0.03 0  3.25 0.03 0  3.3 0.03 0  3.35 0.03 0  3.4 0.03 0  3.45 0.03 0  3.5 0.03 0  3.55 0.03 0  3.6 0.03 0  3.65 0.03 0  3.7 0.03 0  3.75 0.03 0  3.8 0.03 0  3.85 0.03 0  3.9 0.03 0  3.95 0.03 0  4 0.03 0  4.05 0.03 0  4.1 0.03 0  4.15 0.03 0  4.2 0.03 0  4.25 0.03 0  4.3 0.03 0  4.35 0.03 0  4.4 0.03 0  4.45 0.03 0  4.5 0.03 0  4.55 0.03 0  4.6 0.03 0  4.65 0.03 0  4.7 0.03 0  4.75 0.03 0  4.8 0.03 0  4.85 0.03 0  4.9 0.03 0  4.95 0.03 0  5 0.03 0  0 0.06 0  0.05 0.06 0  0.1 0.06 0  0.15 0.06 0  0.2 0.06 0  0.25 0.06 0  0.3 0.06 0  0.35 0.06 0  0.4 0.06 0  0.45 0.06 0  0.5 0.06 0  0.55 0.06 0  0.6 0.06 0  0.65 0.06 0  0.7 0.06 0  0.75 0.06 0  0.8 0.06 0  0.85 0.06 0  0.9 0.06 0  0.95 0.06 0  1 0.06 0  1.05 0.06 0  1.1 0.06 0  1.15 0.06 0  1.2 0.06 0  1.25 0.06 0  1.3 0.06 0  1.35 0.06 0  1.4 0.06 0  1.45 0.06 0  1.5 0.06 0  1.55 0.06 0  1.6 0.06 0  1.65 0.06 0  1.7 0.06 0  1.75 0.06 0  1.8 0.06 0  1.85 0.06 0  1.9 0.06 0  1.95 0.06 0  2 0.06 0  2.05 0.06 0  2.1 0.06 0  2.15 0.06 0  2.2 0.06 0  2.25 0.06 0  2.3 0.06 0  2.35 0.06 0  2.4 0.06 0  2.45 0.06 0  2.5 0.06 0  2.55 0.06 0  2.6 0.06 0  2.65 0.06 0  2.7 0.06 0  2.75 0.06 0  2.8 0.06 0  2.85 0.06 0  2.9 0.06 0  2.95 0.06 0  3 0.06 0  3.05 0.06 0  3.1 0.06 0  3.15 0.06 0  3.2 0.06 0  3.25 0.06 0  3.3 0.06 0  3.35 0.06 0  3.4 0.06 0  3.45 0.06 0  3.5 0.06 0  3.55 0.06 0  3.6 0.06 0  3.65 0.06 0  3.7 0.06 0  3.75 0.06 0  3.8 0.06 0  3.85 0.06 0  3.9 0.06 0  3.95 0.06 0  4 0.06 0  4.05 0.06 0  4.1 0.06 0  4.15 0.06 0  4.2 0.06 0  4.25 0.06 0  4.3 0.06 0  4.35 0.06 0  4.4 0.06 0  4.45 0.06 0  4.5 0.06 0  4.55 0.06 0  4.6 0.06 0  4.65 0.06 0  4.7 0.06 0  4.75 0.06 0  4.8 0.06 0  4.85 0.06 0  4.9 0.06 0  4.95 0.06 0  5 0.06 0  0 0.09 0  0.05 0.09 0  0.1 0.09 0  0.15 0.09 0  0.2 0.09 0  0.25 0.09 0  0.3 0.09 0  0.35 0.09 0  0.4 0.09 0  0.45 0.09 0  0.5 0.09 0  0.55 0.09 0  0.6 0.09 0  0.65 0.09 0  0.7 0.09 0  0.75 0.09 0  0.8 0.09 0  0.85 0.09 0  0.9 0.09 0  0.95 0.09 0  1 0.09 0  1.05 0.09 0  1.1 0.09 0  1.15 0.09 0  1.2 0.09 0  1.25 0.09 0  1.3 0.09 0  1.35 0.09 0  1.4 0.09 0  1.45 0.09 0  1.5 0.09 0  1.55 0.09 0  1.6 0.09 0  1.65 0.09 0  1.7 0.09 0  1.75 0.09 0  1.8 0.09 0  1.85 0.09 0  1.9 0.09 0  1.95 0.09 0  2 0.09 0  2.05 0.09 0  2.1 0.09 0  2.15 0.09 0  2.2 0.09 0  2.25 0.09 0  2.3 0.09 0  2.35 0.09 0  2.4 0.09 0  2.45 0.09 0  2.5 0.09 0  2.55 0.09 0  2.6 0.09 0  2.65 0.09 0  2.7 0.09 0  2.75 0.09 0  2.8 0.09 0  2.85 0.09 0  2.9 0.09 0  2.95 0.09 0  3 0.09 0  3.05 0.09 0  3.1 0.09 0  3.15 0.09 0  3.2 0.09 0  3.25 0.09 0  3.3 0.09 0  3.35 0.09 0  3.4 0.09 0  3.45 0.09 0  3.5 0.09 0  3.55 0.09 0  3.6 0.09 0  3.65 0.09 0  3.7 0.09 0  3.75 0.09 0  3.8 0.09 0  3.85 0.09 0  3.9 0.09 0  3.95 0.09 0  4 0.09 0  4.05 0.09 0  4.1 0.09 0  4.15 0.09 0  4.2 0.09 0  4.25 0.09 0  4.3 0.09 0  4.35 0.09 0  4.4 0.09 0  4.45 0.09 0  4.5 0.09 0  4.55 0.09 0  4.6 0.09 0  4.65 0.09 0  4.7 0.09 0  4.75 0.09 0  4.8 0.09 0  4.85 0.09 0  4.9 0.09 0  4.95 0.09 0  5 0.09 0  0 0.12 0  0.05 0.12 0  0.1 0.12 0  0.15 0.12 0  0.2 0.12 0  0.25 0.12 0  0.3 0.12 0  0.35 0.12 0  0.4 0.12 0  0.45 0.12 0  0.5 0.12 0  0.55 0.12 0  0.6 0.12 0  0.65 0.12 0  0.7 0.12 0  0.75 0.12 0  0.8 0.12 0  0.85 0.12 0  0.9 0.12 0  0.95 0.12 0  1 0.12 0  1.05 0.12 0  1.1 0.12 0  1.15 0.12 0  1.2 0.12 0  1.25 0.12 0  1.3 0.12 0  1.35 0.12 0  1.4 0.12 0  1.45 0.12 0  1.5 0.12 0  1.55 0.12 0  1.6 0.12 0  1.65 0.12 0  1.7 0.12 0  1.75 0.12 0  1.8 0.12 0  1.85 0.12 0  1.9 0.12 0  1.95 0.12 0  2 0.12 0  2.05 0.12 0  2.1 0.12 0  2.15 0.12 0  2.2 0.12 0  2.25 0.12 0  2.3 0.12 0  2.35 0.12 0  2.4 0.12 0  2.45 0.12 0  2.5 0.12 0  2.55 0.12 0  2.6 0.12 0  2.65 0.12 0  2.7 0.12 0  2.75 0.12 0  2.8 0.12 0  2.85 0.12 0  2.9 0.12 0  2.95 0.12 0  3 0.12 0  3.05 0.12 0  3.1 0.12 0  3.15 0.12 0  3.2 0.12 0  3.25 0.12 0  3.3 0.12 0  3.35 0.12 0  3.4 0.12 0  3.45 0.12 0  3.5 0.12 0  3.55 0.12 0  3.6 0.12 0  3.65 0.12 0  3.7 0.12 0  3.75 0.12 0  3.8 0.12 0  3.85 0.12 0  3.9 0.12 0  3.95 0.12 0  4 0.12 0  4.05 0.12 0  4.1 0.12 0  4.15 0.12 0  4.2 0.12 0  4.25 0.12 0  4.3 0.12 0  4.35 0.12 0  4.4 0.12 0  4.45 0.12 0  4.5 0.12 0  4.55 0.12 0  4.6 0.12 0  4.65 0.12 0  4.7 0.12 0  4.75 0.12 0  4.8 0.12 0  4.85 0.12 0  4.9 0.12 0  4.95 0.12 0  5 0.12 0  0 0.15 0  0.05 0.15 0  0.1 0.15 0  0.15 0.15 0  0.2 0.15 0  0.25 0.15 0  0.3 0.15 0  0.35 0.15 0  0.4 0.15 0  0.45 0.15 0  0.5 0.15 0  0.55 0.15 0  0.6 0.15 0  0.65 0.15 0  0.7 0.15 0  0.75 0.15 0  0.8 0.15 0  0.85 0.15 0  0.9 0.15 0  0.95 0.15 0  1 0.15 0  1.05 0.15 0  1.1 0.15 0  1.15 0.15 0  1.2 0.15 0  1.25 0.15 0  1.3 0.15 0  1.35 0.15 0  1.4 0.15 0  1.45 0.15 0  1.5 0.15 0  1.55 0.15 0  1.6 0.15 0  1.65 0.15 0  1.7 0.15 0  1.75 0.15 0  1.8 0.15 0  1.85 0.15 0  1.9 0.15 0  1.95 0.15 0  2 0.15 0  2.05 0.15 0  2.1 0.15 0  2.15 0.15 0  2.2 0.15 0  2.25 0.15 0  2.3 0.15 0  2.35 0.15 0  2.4 0.15 0  2.45 0.15 0  2.5 0.15 0  2.55 0.15 0  2.6 0.15 0  2.65 0.15 0  2.7 0.15 0  2.75 0.15 0  2.8 0.15 0  2.85 0.15 0  2.9 0.15 0  2.95 0.15 0  3 0.15 0  3.05 0.15 0  3.1 0.15 0  3.15 0.15 0  3.2 0.15 0  3.25 0.15 0  3.3 0.15 0  3.35 0.15 0  3.4 0.15 0  3.45 0.15 0  3.5 0.15 0  3.55 0.15 0  3.6 0.15 0  3.65 0.15 0  3.7 0.15 0  3.75 0.15 0  3.8 0.15 0  3.85 0.15 0  3.9 0.15 0  3.95 0.15 0  4 0.15 0  4.05 0.15 0  4.1 0.15 0  4.15 0.15 0  4.2 0.15 0  4.25 0.15 0  4.3 0.15 0  4.35 0.15 0  4.4 0.15 0  4.45 0.15 0  4.5 0.15 0  4.55 0.15 0  4.6 0.15 0  4.65 0.15 0  4.7 0.15 0  4.75 0.15 0  4.8 0.15 0  4.85 0.15 0  4.9 0.15 0  4.95 0.15 0  5 0.15 0  0 0.18 0  0.05 0.18 0  0.1 0.18 0  0.15 0.18 0  0.2 0.18 0  0.25 0.18 0  0.3 0.18 0  0.35 0.18 0  0.4 0.18 0  0.45 0.18 0  0.5 0.18 0  0.55 0.18 0  0.6 0.18 0  0.65 0.18 0  0.7 0.18 0  0.75 0.18 0  0.8 0.18 0  0.85 0.18 0  0.9 0.18 0  0.95 0.18 0  1 0.18 0  1.05 0.18 0  1.1 0.18 0  1.15 0.18 0  1.2 0.18 0  1.25 0.18 0  1.3 0.18 0  1.35 0.18 0  1.4 0.18 0  1.45 0.18 0  1.5 0.18 0  1.55 0.18 0  1.6 0.18 0  1.65 0.18 0  1.7 0.18 0  1.75 0.18 0  1.8 0.18 0  1.85 0.18 0  1.9 0.18 0  1.95 0.18 0  2 0.18 0  2.05 0.18 0  2.1 0.18 0  2.15 0.18 0  2.2 0.18 0  2.25 0.18 0  2.3 0.18 0  2.35 0.18 0  2.4 0.18 0  2.45 0.18 0  2.5 0.18 0  2.55 0.18 0  2.6 0.18 0  2.65 0.18 0  2.7 0.18 0  2.75 0.18 0  2.8 0.18 0  2.85 0.18 0  2.9 0.18 0  2.95 0.18 0  3 0.18 0  3.05 0.18 0  3.1 0.18 0  3.15 0.18 0  3.2 0.18 0  3.25 0.18 0  3.3 0.18 0  3.35 0.18 0  3.4 0.18 0  3.45 0.18 0  3.5 0.18 0  3.55 0.18 0  3.6 0.18 0  3.65 0.18 0  3.7 0.18 0  3.75 0.18 0  3.8 0.18 0  3.85 0.18 0  3.9 0.18 0  3.95 0.18 0  4 0.18 0  4.05 0.18 0  4.1 0.18 0  4.15 0.18 0  4.2 0.18 0  4.25 0.18 0  4.3 0.18 0  4.35 0.18 0  4.4 0.18 0  4.45 0.18 0  4.5 0.18 0  4.55 0.18 0  4.6 0.18 0  4.65 0.18 0  4.7 0.18 0  4.75 0.18 0  4.8 0.18 0  4.85 0.18 0  4.9 0.18 0  4.95 0.18 0  5 0.18 0  0 0.21 0  0.05 0.21 0  0.1 0.21 0  0.15 0.21 0  0.2 0.21 0  0.25 0.21 0  0.3 0.21 0  0.35 0.21 0  0.4 0.21 0  0.45 0.21 0  0.5 0.21 0  0.55 0.21 0  0.6 0.21 0  0.65 0.21 0  0.7 0.21 0  0.75 0.21 0  0.8 0.21 0  0.85 0.21 0  0.9 0.21 0  0.95 0.21 0  1 0.21 0  1.05 0.21 0  1.1 0.21 0  1.15 0.21 0  1.2 0.21 0  1.25 0.21 0  1.3 0.21 0  1.35 0.21 0  1.4 0.21 0  1.45 0.21 0  1.5 0.21 0  1.55 0.21 0  1.6 0.21 0  1.65 0.21 0  1.7 0.21 0  1.75 0.21 0  1.8 0.21 0  1.85 0.21 0  1.9 0.21 0  1.95 0.21 0  2 0.21 0  2.05 0.21 0  2.1 0.21 0  2.15 0.21 0  2.2 0.21 0  2.25 0.21 0  2.3 0.21 0  2.35 0.21 0  2.4 0.21 0  2.45 0.21 0  2.5 0.21 0  2.55 0.21 0  2.6 0.21 0  2.65 0.21 0  2.7 0.21 0  2.75 0.21 0  2.8 0.21 0  2.85 0.21 0  2.9 0.21 0  2.95 0.21 0  3 0.21 0  3.05 0.21 0  3.1 0.21 0  3.15 0.21 0  3.2 0.21 0  3.25 0.21 0  3.3 0.21 0  3.35 0.21 0  3.4 0.21 0  3.45 0.21 0  3.5 0.21 0  3.55 0.21 0  3.6 0.21 0  3.65 0.21 0  3.7 0.21 0  3.75 0.21 0  3.8 0.21 0  3.85 0.21 0  3.9 0.21 0  3.95 0.21 0  4 0.21 0  4.05 0.21 0  4.1 0.21 0  4.15 0.21 0  4.2 0.21 0  4.25 0.21 0  4.3 0.21 0  4.35 0.21 0  4.4 0.21 0  4.45 0.21 0  4.5 0.21 0  4.55 0.21 0  4.6 0.21 0  4.65 0.21 0  4.7 0.21 0  4.75 0.21 0  4.8 0.21 0  4.85 0.21 0  4.9 0.21 0  4.95 0.21 0  5 0.21 0  0 0.24 0  0.05 0.24 0  0.1 0.24 0  0.15 0.24 0  0.2 0.24 0  0.25 0.24 0  0.3 0.24 0
[...]
<PointData  Scalars="f_59"> 
<DataArray  type="Float64"  Name="f_59"  format="ascii">2.9772540393872165e-15  5.0000000000000014e+01  5.0000000000000014e+01  5.0000000000000036e+01  5.0000000000000028e+01  4.9999999999999993e+01  5.0000000000000014e+01  4.9999999999999993e+01  5.0000000000000036e+01  5.0000000000000021e+01  4.9999999999999979e+01  5.0000000000000036e+01  4.9999999999999993e+01  4.9999999999999986e+01  5.0000000000000050e+01  4.9999999999999957e+01  5.0000000000000036e+01  5.0000000000000000e+01  5.0000000000000007e+01  5.0000000000000028e+01  5.0000000000000014e+01  5.0000000000000021e+01  5.0000000000000050e+01  4.9999999999999986e+01  5.0000000000000014e+01  4.9999999999999986e+01  5.0000000000000021e+01  5.0000000000000021e+01  5.0000000000000021e+01  4.9999999999999979e+01  5.0000000000000014e+01  4.9999999999999979e+01  5.0000000000000057e+01  4.9999999999999993e+01  4.9999999999999993e+01  5.0000000000000021e+01  5.0000000000000000e+01  5.0000000000000028e+01  5.0000000000000014e+01  5.0000000000000000e+01  5.0000000000000028e+01  4.9999999999999993e+01  5.0000000000000036e+01  5.0000000000000014e+01  5.0000000000000021e+01  5.0000000000000021e+01  4.9999999999999986e+01  5.0000000000000021e+01  5.0000000000000000e+01  5.0000000000000021e+01  4.9999999999999979e+01  5.0000000000000021e+01  5.0000000000000000e+01  5.0000000000000007e+01  5.0000000000000014e+01  5.0000000000000000e+01  5.0000000000000007e+01  5.0000000000000000e+01  4.9999999999999986e+01  5.0000000000000021e+01  5.0000000000000000e+01  4.9999999999999986e+01  5.0000000000000007e+01  5.0000000000000014e+01  5.0000000000000028e+01  5.0000000000000000e+01  4.9999999999999993e+01  5.0000000000000007e+01  5.0000000000000007e+01  5.0000000000000000e+01  5.0000000000000078e+01  4.9999999999999972e+01  5.0000000000000014e+01  5.0000000000000007e+01  5.0000000000000043e+01  5.0000000000000007e+01  5.0000000000000014e+01  4.9999999999999979e+01  5.0000000000000036e+01  4.9999999999999993e+01  5.0000000000000000e+01  5.0000000000000021e+01  5.0000000000000014e+01  5.0000000000000021e+01  5.0000000000000014e+01  5.0000000000000036e+01  5.0000000000000050e+01  5.0000000000000007e+01  4.9999999999999993e+01  5.0000000000000021e+01  5.0000000000000007e+01  5.0000000000000028e+01  4.9999999999999979e+01  5.0000000000000007e+01  5.0000000000000014e+01  4.9999999999999986e+01  5.0000000000000028e+01  5.0000000000000014e+01  5.0000000000000014e+01  5.0000000000000007e+01  0.0000000000000000e+00  1.9687716502655850e-15  2.9653339303906787e+01  3.9684796624587477e+01  4.2386580357875864e+01  4.3602914000387578e+01  4.4217972523274057e+01  4.4552003567648420e+01  4.4740063367382305e+01  4.4848100696690729e+01  4.4910875088318150e+01  4.4947586502337046e+01  4.4969135476852621e+01  4.4981811207187732e+01  4.4989276510901433e+01  4.4993676229423698e+01  4.4996270265797335e+01  4.4997800038444396e+01  4.4998702305041554e+01  4.4999234505994757e+01  4.4999548437725863e+01  4.4999733622621825e+01  4.4999842862722133e+01  4.4999907303706138e+01  4.4999945317767384e+01  4.4999967742513832e+01  4.4999980971040635e+01  4.4999988774655108e+01  4.4999993378072418e+01  4.4999996093667498e+01  4.4999997695620458e+01  4.4999998640626380e+01  4.4999999198093697e+01  4.4999999526948415e+01  4.4999999720942753e+01  4.4999999835381658e+01  4.4999999902890224e+01  4.4999999942714133e+01  4.4999999966206509e+01  4.4999999980064899e+01  4.4999999988240035e+01  4.4999999993062602e+01  4.4999999995907380e+01  4.4999999997585398e+01  4.4999999998575063e+01  4.4999999999158419e+01  4.4999999999501874e+01  4.4999999999703405e+01  4.4999999999820297e+01  4.4999999999885958e+01  4.4999999999919105e+01  4.4999999999929258e+01  4.4999999999919112e+01  4.4999999999885972e+01  4.4999999999820304e+01  4.4999999999703363e+01  4.4999999999501917e+01  4.4999999999158419e+01  4.4999999998575063e+01  4.4999999997585419e+01  4.4999999995907338e+01  4.4999999993062602e+01  4.4999999988240027e+01  4.4999999980064864e+01  4.4999999966206509e+01  4.4999999942714084e+01  4.4999999902890224e+01  4.4999999835381722e+01  4.4999999720942768e+01  4.4999999526948422e+01  4.4999999198093640e+01  4.4999998640626423e+01  4.4999997695620507e+01  4.4999996093667527e+01  4.4999993378072432e+01  4.4999988774655094e+01  4.4999980971040635e+01  4.4999967742513846e+01  4.4999945317767406e+01  4.4999907303706138e+01  4.4999842862722140e+01  4.4999733622621790e+01  4.4999548437725885e+01  4.4999234505994799e+01  4.4998702305041547e+01  4.4997800038444389e+01  4.4996270265797278e+01  4.4993676229423762e+01  4.4989276510901391e+01  4.4981811207187761e+01  4.4969135476852593e+01  4.4947586502336989e+01  4.4910875088318043e+01  4.4848100696690643e+01  4.4740063367382241e+01  4.4552003567648342e+01  4.4217972523273957e+01  4.3602914000387457e+01  4.2386580357875843e+01  3.9684796624587420e+01  2.9653339303906723e+01  -3.1306337730518775e-15  -1.7386435804309249e-15  1.9699183465005419e+01  3.0574442121026543e+01  3.5224669011731528e+01  3.7393723583823224e+01  3.8528248269705536e+01  3.9152874875662782e+01  3.9507217272954570e+01  3.9711617971531730e+01  3.9830657967775394e+01  3.9900365425272248e+01  3.9941313048603867e+01  3.9965409907141222e+01  3.9979605093717964e+01  3.9987972279051888e+01  3.9992905896378169e+01  3.9995815516592572e+01  3.9997531668672963e+01  3.9998543954418246e+01  3.9999141081079365e+01  3.9999493321323577e+01  3.9999701107543856e+01  3.9999823681309458e+01  3.9999895988259375e+01  3.9999938642630916e+01  3.9999963804773699e+01  3.9999978648126969e+01  3.9999987404345831e+01  3.9999992569714259e+01  3.9999995616809706e+01  3.9999997414317775e+01  3.9999998474683451e+01  3.9999999100202459e+01  3.9999999469201555e+01  3.9999999686877338e+01  3.9999999815286245e+01  3.9999999891035735e+01  3.9999999935720986e+01  3.9999999962081127e+01  3.9999999977631234e+01  3.9999999986804298e+01  3.9999999992215365e+01  3.9999999995407180e+01  3.9999999997289528e+01  3.9999999998399268e+01  3.9999999999052591e+01  3.9999999999435808e+01  3.9999999999658208e+01  3.9999999999783114e+01  3.9999999999846146e+01  3.9999999999865338e+01  3.9999999999846175e+01  3.9999999999783086e+01  3.9999999999658201e+01  3.9999999999435758e+01  3.9999999999052548e+01  3.9999999998399247e+01  3.9999999997289578e+01  3.9999999995407109e+01  3.9999999992215344e+01  3.9999999986804220e+01  3.9999999977631283e+01  3.9999999962081134e+01  3.9999999935721000e+01  3.9999999891035657e+01  3.9999999815286223e+01  3.9999999686877395e+01  3.9999999469201597e+01  3.9999999100202508e+01  3.9999998474683473e+01  3.9999997414317846e+01  3.9999995616809727e+01  3.9999992569714301e+01  3.9999987404345852e+01  3.9999978648127026e+01  3.9999963804773706e+01  3.9999938642631008e+01  3.9999895988259411e+01  3.9999823681309465e+01  3.9999701107543864e+01  3.9999493321323584e+01  3.9999141081079379e+01  3.9998543954418324e+01  3.9997531668673012e+01  3.9995815516592636e+01  3.9992905896378190e+01  3.9987972279051888e+01  3.9979605093717922e+01  3.9965409907141257e+01  3.9941313048603831e+01  3.9900365425272206e+01  3.9830657967775288e+01  3.9711617971531616e+01  3.9507217272954499e+01  3.9152874875662640e+01  3.8528248269705408e+01  3.7393723583823153e+01  3.5224669011731478e+01  3.0574442121026461e+01  1.9699183465005337e+01  -1.2700654020544411e-15  -2.4936649967166590e-15  1.4014796124650870e+01  2.3573297748015225e+01  2.8786711222046467e+01  3.1518927080460003e+01  3.3007104438046156e+01  3.3844647742904961e+01  3.4325245380318449e+01  3.4604245677467325e+01  3.4767313517897577e+01  3.4862997160112727e+01  3.4919269034643285e+01  3.4952405923988039e+01  3.4971933925518364e+01  3.4983446988951648e+01  3.4990236387995814e+01  3.4994240750210338e+01  3.4996602700198878e+01  3.4997995947785469e+01  3.4998817807171022e+01  3.4999302619216145e+01  3.4999588610701942e+01  3.4999757318437950e+01  3.4999856840220730e+01  3.4999915548860379e+01  3.4999950181556379e+01  3.4999970611671827e+01  3.4999982663570620e+01  3.4999989773089496e+01  3.4999993967056270e+01  3.4999996441113815e+01  3.4999997900581945e+01  3.4999998761534947e+01  3.4999999269418616e+01  3.4999999569023679e+01  3.4999999745763269e+01  3.4999999850023556e+01  3.4999999911527524e+01  3.4999999947809258e+01  3.4999999969212027e+01  3.4999999981837625e+01  3.4999999989285357e+01  3.4999999993678465e+01  3.4999999996269430e+01  3.4999999997796714e+01  3.4999999998695948e+01  3.4999999999223483e+01  3.4999999999529507e+01  3.4999999999701473e+01  3.4999999999788237e+01  3.4999999999814655e+01  3.4999999999788237e+01  3.4999999999701444e+01  3.4999999999529535e+01  3.4999999999223427e+01  3.4999999998695955e+01  3.4999999997796770e+01  3.4999999996269395e+01  3.4999999993678450e+01  3.4999999989285314e+01  3.4999999981837625e+01  3.4999999969212013e+01  3.4999999947809215e+01  3.4999999911527496e+01  3.4999999850023514e+01  3.4999999745763262e+01  3.4999999569023686e+01  3.4999999269418652e+01  3.4999998761534989e+01  3.4999997900581931e+01  3.4999996441113844e+01  3.4999993967056319e+01  3.4999989773089531e+01  3.4999982663570677e+01  3.4999970611671856e+01  3.4999950181556400e+01  3.4999915548860415e+01  3.4999856840220758e+01  3.4999757318437979e+01  3.4999588610701934e+01  3.4999302619216145e+01  3.4998817807171065e+01  3.4997995947785462e+01  3.4996602700198927e+01  3.4994240750210388e+01  3.4990236387995786e+01  3.4983446988951613e+01  3.4971933925518300e+01  3.4952405923987996e+01  3.4919269034643236e+01  3.4862997160112620e+01  3.4767313517897463e+01  3.4604245677467148e+01  3.4325245380318343e+01  3.3844647742904876e+01  3.3007104438046085e+01  3.1518927080459950e+01  2.8786711222046435e+01  2.3573297748015094e+01  1.4014796124650795e+01  -4.3368086899419941e-16  -7.5767097131897185e-16  1.0338643903112644e+01  1.8212334798794288e+01  2.3174118278593394e+01  2.6053892348066967e+01  2.7704190415787505e+01  2.8657226984926471e+01  2.9211915636669367e+01  2.9536485974293146e+01  2.9727040886274381e+01  2.9839139311765173e+01  2.9905161209901504e+01  2.9944072169802109e+01  2.9967013912187095e+01  2.9980543325776946e+01  2.9988523050681668e+01  2.9993229888394580e+01  2.9996006333524520e+01  2.9997644128803334e+01  2.9998610260303444e+01  2.9999180183550507e+01  2.9999516384171024e+01  2.9999714711151928e+01  2.9999831705734326e+01  2.9999900721781348e+01  2.9999941434924061e+01  2.9999965451953958e+01  2.9999979619806926e+01  2.9999987977546333e+01  2.9999992907849560e+01  2.9999995816278460e+01  2.9999997531986086e+01  2.9999998544096993e+01  2.9999999141150074e+01  2.9999999493356938e+01  2.9999999701126796e+01  2.9999999823692061e+01  2.9999999895994375e+01  2.9999999938646027e+01  2.9999999963806580e+01  2.9999999978648859e+01  2.9999999987404159e+01  2.9999999992568576e+01  2.9999999995614370e+01  2.9999999997409912e+01  2.9999999998467018e+01  2.9999999999087073e+01  2.9999999999446914e+01  2.9999999999648999e+01  2.9999999999751054e+01  2.9999999999782140e+01  2.9999999999751029e+01  2.9999999999649035e+01  2.9999999999446885e+01  2.9999999999087073e+01  2.9999999998467025e+01  2.9999999997409898e+01  2.9999999995614377e+01  2.9999999992568583e+01  2.9999999987404141e+01  2.9999999978648823e+01  2.9999999963806548e+01  2.9999999938646017e+01  2.9999999895994325e+01  2.9999999823692029e+01  2.9999999701126818e+01  2.9999999493356921e+01  2.9999999141150109e+01  2.9999998544097018e+01  2.9999997531986097e+01  2.9999995816278453e+01  2.9999992907849567e+01  2.9999987977546336e+01  2.9999979619806957e+01  2.9999965451953955e+01  2.9999941434924047e+01  2.9999900721781373e+01  2.9999831705734337e+01  2.9999714711151970e+01  2.9999516384171006e+01  2.9999180183550521e+01  2.9998610260303451e+01  2.9997644128803341e+01  2.9996006333524537e+01  2.9993229888394552e+01  2.9988523050681660e+01  2.9980543325776917e+01  2.9967013912187056e+01  2.9944072169802041e+01  2.9905161209901419e+01  2.9839139311765084e+01  2.9727040886274267e+01  2.9536485974293001e+01  2.9211915636669250e+01  2.8657226984926389e+01  2.7704190415787401e+01  2.6053892348066906e+01  2.3174118278593358e+01  1.8212334798794174e+01  1.0338643903112585e+01  -1.0930582044608120e-15  -2.7647155398380355e-15  7.7167638541330756e+00  1.3978215665964298e+01  1.8298839932579714e+01  2.1008459407560533e+01  2.2638515784241878e+01  2.3605711150465503e+01  2.4177275918431420e+01  2.4514628267080838e+01  2.4713667852160697e+01  2.4831088883810160e+01  2.4900357625229859e+01  2.4941220050038808e+01  2.4965325185766201e+01  2.4979545022329194e+01  2.4987933429438950e+01  2.4992881824392576e+01  2.4995800925912615e+01  2.4997522929449705e+01  2.4998538754406052e+01  2.4999137998437210e+01  2.4999491497735011e+01  2.4999700030064144e+01  2.4999823045109885e+01  2.4999895612761861e+01  2.4999938421054757e+01  2.4999963674041368e+01  2.4999978570999112e+01  2.4999987358844862e+01  2.4999992542872004e+01  2.4999995600974927e+01  2.4999997404976636e+01  2.4999998469172994e+01  2.4999999096951743e+01  2.4999999467283924e+01  2.4999999685746104e+01  2.4999999814618882e+01  2.4999999890641984e+01  2.4999999935488614e+01  2.4999999961943988e+01  2.4999999977550075e+01  2.4999999986755949e+01  2.4999999992186151e+01  2.4999999995388684e+01  2.4999999997276614e+01  2.4999999998388123e+01  2.4999999999040117e+01  2.4999999999418439e+01  2.4999999999630958e+01  2.4999999999738247e+01  2.4999999999770893e+01  2.4999999999738233e+01  2.4999999999630948e+01  2.4999999999418421e+01  2.4999999999040103e+01  2.4999999998388134e+01  2.4999999997276610e+01  2.4999999995388684e+01  2.4999999992186115e+01  2.4999999986755920e+01  2.4999999977550029e+01  2.4999999961943946e+01  2.4999999935488628e+01  2.4999999890641956e+01  2.4999999814618839e+01  2.4999999685746108e+01  2.4999999467283963e+01  2.4999999096951775e+01  2.4999998469173025e+01  2.4999997404976622e+01  2.4999995600974948e+01  2.4999992542871983e+01  2.4999987358844880e+01  2.4999978570999136e+01  2.4999963674041378e+01  2.4999938421054768e+01  2.4999895612761865e+01  2.4999823045109935e+01  2.4999700030064144e+01  2.4999491497734979e+01  2.4999137998437181e+01  2.4998538754406052e+01  2.4997522929449705e+01  2.4995800925912594e+01  2.4992881824392548e+01  2.4987933429438890e+01  2.4979545022329127e+01  2.4965325185766144e+01  2.4941220050038755e+01  2.4900357625229770e+01  2.4831088883810075e+01  2.4713667852160594e+01  2.4514628267080685e+01  2.4177275918431317e+01  2.3605711150465392e+01  2.2638515784241779e+01  2.1008459407560483e+01  1.8298839932579668e+01  1.3978215665964219e+01  7.7167638541330126e+00  3.1597505306137441e-15  1.2510655547820782e-15  5.6947766856027968e+00  1.0496937910382094e+01  1.4010860513729474e+01  1.6341622931339195e+01  1.7801830748825004e+01  1.8690286088894879e+01  1.9223100164447501e+01  1.9540269519603271e+01  1.9728320744734432e+01  1.9839572246833672e+01  1.9905307657617342e+01  1.9944121708242974e+01  1.9967030669408686e+01  1.9980548994192585e+01  1.9988524968119808e+01  1.9993230537000692e+01  1.9996006552926595e+01  1.9997644203019842e+01  1.9998610285408446e+01  1.9999180192042740e+01  1.9999516387043652e+01  1.9999714712123669e+01  1.9999831706063041e+01  1.9999900721892548e+01  1.9999941434961659e+01  1.9999965451966691e+01  1.9999979619811224e+01  1.9999987977547754e+01  1.9999992907850061e+01  1.9999995816278627e+01  1.9999997531986125e+01  1.9999998544097025e+01  1.9999999141150077e+01  1.9999999493356942e+01  1.9999999701126814e+01  1.9999999823692065e+01  1.9999999895994353e+01  1.9999999938646042e+01  1.9999999963806594e+01  1.9999999978648852e+01  1.9999999987404159e+01  1.9999999992568579e+01  1.9999999995614388e+01  1.9999999997409894e+01  1.9999999998467025e+01  1.9999999999087098e+01  1.9999999999446914e+01  1.9999999999649020e+01  1.9999999999751051e+01  1.9999999999782119e+01  1.9999999999751072e+01  1.9999999999649027e+01  1.9999999999446910e+01  1.9999999999087091e+01  1.9999999998467018e+01  1.9999999997409923e+01  1.9999999995614388e+01  1.9999999992568554e+01  1.9999999987404145e+01  1.9999999978648805e+01  1.9999999963806555e+01  1.9999999938646006e+01  1.9999999895994325e+01  1.9999999823692047e+01  1.9999999701126825e+01  1.9999999493356910e+01  1.9999999141150113e+01  1.9999998544097046e+01  1.9999997531986153e+01  1.9999995816278645e+01  1.9999992907850061e+01  1.9999987977547779e+01  1.9999979619811249e+01  1.9999965451966673e+01  1.9999941434961684e+01  1.9999900721892544e+01  1.9999831706063052e+01  1.9999714712123694e+01  1.9999516387043631e+01  1.9999180192042722e+01  1.9998610285408443e+01  1.9997644203019821e+01  1.9996006552926598e+01  1.9993230537000684e+01  1.9988524968119755e+01  1.9980548994192567e+01  1.9967030669408629e+01  1.9944121708242896e+01  1.9905307657617254e+01  1.9839572246833576e+01  1.9728320744734347e+01  1.9540269519603164e+01  1.9223100164447420e+01  1.8690286088894808e+01  1.7801830748824916e+01  1.6341622931339145e+01  1.4010860513729437e+01  1.0496937910382014e+01  5.6947766856027586e+00  -1.1732616366539496e-15  7.3183646642771530e-16  4.0314774608349611e+00  7.5133514666425407e+00  1.0160014550524606e+01  1.1985504473508202e+01  1.3165222633686069e+01  1.3898143741206084e+01  1.4343343161151559e+01  1.4610367610531053e+01  1.4769384377569070e+01  1.4863697663918257e+01  1.4919505992057255e+01  1.4952486078869889e+01  1.4971961039272594e+01  1.4983456160640801e+01  1.4990239490475885e+01  1.4994241799677106e+01  1.4996603055198902e+01  1.4997996067870252e+01  1.4998817847791791e+01  1.4999302632956837e+01  1.4999588615349934e+01  1.4999757320010222e+01  1.4999856840752587e+01  1.4999915549040296e+01  1.4999950181617233e+01  1.4999970611692421e+01  1.4999982663577596e+01  1.4999989773091851e+01  1.4999993967057103e+01  1.4999996441114101e+01  1.4999997900582024e+01  1.4999998761534954e+01  1.4999999269418613e+01  1.4999999569023640e+01  1.4999999745763260e+01  1.4999999850023499e+01  1.4999999911527501e+01  1.4999999947809194e+01  1.4999999969212022e+01  1.4999999981837627e+01  1.4999999989285326e+01  1.4999999993678450e+01  1.4999999996269363e+01  1.4999999997796721e+01  1.4999999998695953e+01  1.4999999999223437e+01  1.4999999999529505e+01  1.4999999999701419e+01  1.4999999999788216e+01  1.4999999999814660e+01  1.4999999999788228e+01  1.4999999999701435e+01  1.4999999999529502e+01  1.4999999999223423e+01  1.4999999998695968e+01  1.4999999997796724e+01  1.4999999996269368e+01  1.4999999993678431e+01  1.4999999989285305e+01  1.4999999981837592e+01  1.4999999969212004e+01  1.4999999947809192e+01  1.4999999911527482e+01  1.4999999850023487e+01  1.4999999745763262e+01  1.4999999569023657e+01  1.4999999269418648e+01  1.4999998761534975e+01  1.4999997900582038e+01  1.4999996441114103e+01  1.4999993967057105e+01  1.4999989773091864e+01  1.4999982663577608e+01  1.4999970611692392e+01  1.4999950181617244e+01  1.4999915549040308e+01  1.4999856840752610e+01  1.4999757320010216e+01  1.4999588615349937e+01  1.4999302632956812e+01  1.4998817847791788e+01  1.4997996067870247e+01  1.4996603055198902e+01  1.4994241799677079e+01  1.4990239490475831e+01  1.4983456160640769e+01  1.4971961039272566e+01  1.4952486078869850e+01  1.4919505992057220e+01  1.4863697663918209e+01  1.4769384377568999e+01  1.4610367610530988e+01  1.4343343161151488e+01  1.3898143741206040e+01  1.3165222633686001e+01  1.1985504473508170e+01  1.0160014550524583e+01  7.5133514666424892e+00  4.0314774608349309e+00  -2.7105054312137468e-16  8.2121294620735028e-16  2.5852709135417093e+00  4.8508007680596279e+00  6.6143837927263718e+00  7.8623520490798215e+00  8.6864596223425572e+00  9.2063834215961684e+00  9.5253155775589171e+00  9.7177399816126613e+00  9.8327288303558813e+00  9.9010659295522405e+00  9.9415500060337525e+00  9.9654900620260101e+00  9.9796322074723047e+00  9.9879814507410796e+00  9.9929089988582529e+00  9.9958165660593146e+00  9.9975320236729779e+00  9.9985440745031173e+00  9.9991411217001094e+00  9.9994933350642299e+00  9.9997011