<?xml version="1.0"?>
<VTKFile type="UnstructuredGrid"  version="0.1"  >
<UnstructuredGrid>
<Piece  NumberOfPoints="2111" NumberOfCells="4000">
<Points>
<DataArray  type="Float64"  NumberOfComponents="3"  format="ascii">0 0 0  0.05 0 0  0.1 0 0  0.15 0 0  0.2 0 0  0.25 0 0  0.3 0 0  0.35 0 0  0.4 0 0  0.45 0 0  0.5 0 0  0.55 0 0  0.6 0 0  0.65 0 0  0.7 0 0  0.75 0 0  0.8 0 0  0.85 0 0  0.9 0 0  0.95 0 0  1 0 0  1.05 0 0  1.1 0 0  1.15 0 0  1.2 0 0  1.25 0 0  1.3 0 0  1.35 0 0  1.4 0 0  1.45 0 0  1.5 0 0  1.55 0 0  1.6 0 0  1.65 0 0  1.7 0 0  1.75 0 0  1.8 0 0  1.85 0 0  1.9 0 0  1.95 0 0  2 0 0  2.05 0 0  2.1 0 0  2.15 0 0  2.2 0 0  2.25 0 0  2.3 0 0  2.35 0 0  2.4 0 0  2.45 0 0  2.5 0 0  2.55 0 0  2.6 0 0  2.65 0 0  2.7 0 0  2.75 0 0  2.8 0 0  2.85 0 0  2.9 0 0  2.95 0 0  3 0 0  3.05 0 0  3.1 0 0  3.15 0 0  3.2 0 0  3.25 0 0  3.3 0 0  3.35 0 0  3.4 0 0  3.45 0 0  3.5 0 0  3.55 0 0  3.6 0 0  3.65 0 0  3.7 0 0  3.75 0 0  3.8 0 0  3.85 0 0  3.9 0 0  3.95 0 0  4 0 0  4.05 0 0  4.1 0 0  4.15 0 0  4.2 0 0  4.25 0 0  4.3 0 0  4.35 0 0  4.4 0 0  4.45 0 0  4.5 0 0  4.55 0 0  4.6 0 0  4.65 0 0  4.7 0 0  4.75 0 0  4.8 0 0  4.85 0 0  4.9 0 0  4.95 0 0  5 0 0  0 0.03 0  0.05 0.03 0  0.1 0.03 0  0.15 0.03 0  0.2 0.03 0  0.25 0.03 0  0.3 0.03 0  0.35 0.03 0  0.4 0.03 0  0.45 0.03 0  0.5 0.03 0  0.55 0.03 0  0.6 0.03 0  0.65 0.03 0  0.7 0.03 0  0.75 0.03 0  0.8 0.03 0  0.85 0.03 0  0.9 0.03 0  0.95 0.03 0  1 0.03 0  1.05 0.03 0  1.1 0.03 0  1.15 0.03 0  1.2 0.03 0  1.25 0.03 0  1.3 0.03 0  1.35 0.03 0  1.4 0.03 0  1.45 0.03 0  1.5 0.03 0  1.55 0.03 0  1.6 0.03 0  1.65 0.03 0  1.7 0.03 0  1.75 0.03 0  1.8 0.03 0  1.85 0.03 0  1.9 0.03 0  1.95 0.03 0  2 0.03 0  2.05 0.03 0  2.1 0.03 0  2.15 0.03 0  2.2 0.03 0  2.25 0.03 0  2.3 0.03 0  2.35 0.03 0  2.4 0.03 0  2.45 0.03 0  2.5 0.03 0  2.55 0.03 0  2.6 0.03 0  2.65 0.03 0  2.7 0.03 0  2.75 0.03 0  2.8 0.03 0  2.85 0.03 0  2.9 0.03 0  2.95 0.03 0  3 0.03 0  3.05 0.03 0  3.1 0.03 0  3.15 0.03 0  3.2 0.03 0  3.25 0.03 0  3.3 0.03 0  3.35 0.03 0  3.4 0.03 0  3.45 0.03 0  3.5 0.03 0  3.55 0.03 0  3.6 0.03 0  3.65 0.03 0  3.7 0.03 0  3.75 0.03 0  3.8 0.03 0  3.85 0.03 0  3.9 0.03 0  3.95 0.03 0  4 0.03 0  4.05 0.03 0  4.1 0.03 0  4.15 0.03 0  4.2 0.03 0  4.25 0.03 0  4.3 0.03 0  4.35 0.03 0  4.4 0.03 0  4.45 0.03 0  4.5 0.03 0  4.55 0.03 0  4.6 0.03 0  4.65 0.03 0  4.7 0.03 0  4.75 0.03 0  4.8 0.03 0  4.85 0.03 0  4.9 0.03 0  4.95 0.03 0  5 0.03 0  0 0.06 0  0.05 0.06 0  0.1 0.06 0  0.15 0.06 0  0.2 0.06 0  0.25 0.06 0  0.3 0.06 0  0.35 0.06 0  0.4 0.06 0  0.45 0.06 0  0.5 0.06 0  0.55 0.06 0  0.6 0.06 0  0.65 0.06 0  0.7 0.06 0  0.75 0.06 0  0.8 0.06 0  0.85 0.06 0  0.9 0.06 0  0.95 0.06 0  1 0.06 0  1.05 0.06 0  1.1 0.06 0  1.15 0.06 0  1.2 0.06 0  1.25 0.06 0  1.3 0.06 0  1.35 0.06 0  1.4 0.06 0  1.45 0.06 0  1.5 0.06 0  1.55 0.06 0  1.6 0.06 0  1.65 0.06 0  1.7 0.06 0  1.75 0.06 0  1.8 0.06 0  1.85 0.06 0  1.9 0.06 0  1.95 0.06 0  2 0.06 0  2.05 0.06 0  2.1 0.06 0  2.15 0.06 0  2.2 0.06 0  2.25 0.06 0  2.3 0.06 0  2.35 0.06 0  2.4 0.06 0  2.45 0.06 0  2.5 0.06 0  2.55 0.06 0  2.6 0.06 0  2.65 0.06 0  2.7 0.06 0  2.75 0.06 0  2.8 0.06 0  2.85 0.06 0  2.9 0.06 0  2.95 0.06 0  3 0.06 0  3.05 0.06 0  3.1 0.06 0  3.15 0.06 0  3.2 0.06 0  3.25 0.06 0  3.3 0.06 0  3.35 0.06 0  3.4 0.06 0  3.45 0.06 0  3.5 0.06 0  3.55 0.06 0  3.6 0.06 0  3.65 0.06 0  3.7 0.06 0  3.75 0.06 0  3.8 0.06 0  3.85 0.06 0  3.9 0.06 0  3.95 0.06 0  4 0.06 0  4.05 0.06 0  4.1 0.06 0  4.15 0.06 0  4.2 0.06 0  4.25 0.06 0  4.3 0.06 0  4.35 0.06 0  4.4 0.06 0  4.45 0.06 0  4.5 0.06 0  4.55 0.06 0  4.6 0.06 0  4.65 0.06 0  4.7 0.06 0  4.75 0.06 0  4.8 0.06 0  4.85 0.06 0  4.9 0.06 0  4.95 0.06 0  5 0.06 0  0 0.09 0  0.05 0.09 0  0.1 0.09 0  0.15 0.09 0  0.2 0.09 0  0.25 0.09 0  0.3 0.09 0  0.35 0.09 0  0.4 0.09 0  0.45 0.09 0  0.5 0.09 0  0.55 0.09 0  0.6 0.09 0  0.65 0.09 0  0.7 0.09 0  0.75 0.09 0  0.8 0.09 0  0.85 0.09 0  0.9 0.09 0  0.95 0.09 0  1 0.09 0  1.05 0.09 0  1.1 0.09 0  1.15 0.09 0  1.2 0.09 0  1.25 0.09 0  1.3 0.09 0  1.35 0.09 0  1.4 0.09 0  1.45 0.09 0  1.5 0.09 0  1.55 0.09 0  1.6 0.09 0  1.65 0.09 0  1.7 0.09 0  1.75 0.09 0  1.8 0.09 0  1.85 0.09 0  1.9 0.09 0  1.95 0.09 0  2 0.09 0  2.05 0.09 0  2.1 0.09 0  2.15 0.09 0  2.2 0.09 0  2.25 0.09 0  2.3 0.09 0  2.35 0.09 0  2.4 0.09 0  2.45 0.09 0  2.5 0.09 0  2.55 0.09 0  2.6 0.09 0  2.65 0.09 0  2.7 0.09 0  2.75 0.09 0  2.8 0.09 0  2.85 0.09 0  2.9 0.09 0  2.95 0.09 0  3 0.09 0  3.05 0.09 0  3.1 0.09 0  3.15 0.09 0  3.2 0.09 0  3.25 0.09 0  3.3 0.09 0  3.35 0.09 0  3.4 0.09 0  3.45 0.09 0  3.5 0.09 0  3.55 0.09 0  3.6 0.09 0  3.65 0.09 0  3.7 0.09 0  3.75 0.09 0  3.8 0.09 0  3.85 0.09 0  3.9 0.09 0  3.95 0.09 0  4 0.09 0  4.05 0.09 0  4.1 0.09 0  4.15 0.09 0  4.2 0.09 0  4.25 0.09 0  4.3 0.09 0  4.35 0.09 0  4.4 0.09 0  4.45 0.09 0  4.5 0.09 0  4.55 0.09 0  4.6 0.09 0  4.65 0.09 0  4.7 0.09 0  4.75 0.09 0  4.8 0.09 0  4.85 0.09 0  4.9 0.09 0  4.95 0.09 0  5 0.09 0  0 0.12 0  0.05 0.12 0  0.1 0.12 0  0.15 0.12 0  0.2 0.12 0  0.25 0.12 0  0.3 0.12 0  0.35 0.12 0  0.4 0.12 0  0.45 0.12 0  0.5 0.12 0  0.55 0.12 0  0.6 0.12 0  0.65 0.12 0  0.7 0.12 0  0.75 0.12 0  0.8 0.12 0  0.85 0.12 0  0.9 0.12 0  0.95 0.12 0  1 0.12 0  1.05 0.12 0  1.1 0.12 0  1.15 0.12 0  1.2 0.12 0  1.25 0.12 0  1.3 0.12 0  1.35 0.12 0  1.4 0.12 0  1.45 0.12 0  1.5 0.12 0  1.55 0.12 0  1.6 0.12 0  1.65 0.12 0  1.7 0.12 0  1.75 0.12 0  1.8 0.12 0  1.85 0.12 0  1.9 0.12 0  1.95 0.12 0  2 0.12 0  2.05 0.12 0  2.1 0.12 0  2.15 0.12 0  2.2 0.12 0  2.25 0.12 0  2.3 0.12 0  2.35 0.12 0  2.4 0.12 0  2.45 0.12 0  2.5 0.12 0  2.55 0.12 0  2.6 0.12 0  2.65 0.12 0  2.7 0.12 0  2.75 0.12 0  2.8 0.12 0  2.85 0.12 0  2.9 0.12 0  2.95 0.12 0  3 0.12 0  3.05 0.12 0  3.1 0.12 0  3.15 0.12 0  3.2 0.12 0  3.25 0.12 0  3.3 0.12 0  3.35 0.12 0  3.4 0.12 0  3.45 0.12 0  3.5 0.12 0  3.55 0.12 0  3.6 0.12 0  3.65 0.12 0  3.7 0.12 0  3.75 0.12 0  3.8 0.12 0  3.85 0.12 0  3.9 0.12 0  3.95 0.12 0  4 0.12 0  4.05 0.12 0  4.1 0.12 0  4.15 0.12 0  4.2 0.12 0  4.25 0.12 0  4.3 0.12 0  4.35 0.12 0  4.4 0.12 0  4.45 0.12 0  4.5 0.12 0  4.55 0.12 0  4.6 0.12 0  4.65 0.12 0  4.7 0.12 0  4.75 0.12 0  4.8 0.12 0  4.85 0.12 0  4.9 0.12 0  4.95 0.12 0  5 0.12 0  0 0.15 0  0.05 0.15 0  0.1 0.15 0  0.15 0.15 0  0.2 0.15 0  0.25 0.15 0  0.3 0.15 0  0.35 0.15 0  0.4 0.15 0  0.45 0.15 0  0.5 0.15 0  0.55 0.15 0  0.6 0.15 0  0.65 0.15 0  0.7 0.15 0  0.75 0.15 0  0.8 0.15 0  0.85 0.15 0  0.9 0.15 0  0.95 0.15 0  1 0.15 0  1.05 0.15 0  1.1 0.15 0  1.15 0.15 0  1.2 0.15 0  1.25 0.15 0  1.3 0.15 0  1.35 0.15 0  1.4 0.15 0  1.45 0.15 0  1.5 0.15 0  1.55 0.15 0  1.6 0.15 0  1.65 0.15 0  1.7 0.15 0  1.75 0.15 0  1.8 0.15 0  1.85 0.15 0  1.9 0.15 0  1.95 0.15 0  2 0.15 0  2.05 0.15 0  2.1 0.15 0  2.15 0.15 0  2.2 0.15 0  2.25 0.15 0  2.3 0.15 0  2.35 0.15 0  2.4 0.15 0  2.45 0.15 0  2.5 0.15 0  2.55 0.15 0  2.6 0.15 0  2.65 0.15 0  2.7 0.15 0  2.75 0.15 0  2.8 0.15 0  2.85 0.15 0  2.9 0.15 0  2.95 0.15 0  3 0.15 0  3.05 0.15 0  3.1 0.15 0  3.15 0.15 0  3.2 0.15 0  3.25 0.15 0  3.3 0.15 0  3.35 0.15 0  3.4 0.15 0  3.45 0.15 0  3.5 0.15 0  3.55 0.15 0  3.6 0.15 0  3.65 0.15 0  3.7 0.15 0  3.75 0.15 0  3.8 0.15 0  3.85 0.15 0  3.9 0.15 0  3.95 0.15 0  4 0.15 0  4.05 0.15 0  4.1 0.15 0  4.15 0.15 0  4.2 0.15 0  4.25 0.15 0  4.3 0.15 0  4.35 0.15 0  4.4 0.15 0  4.45 0.15 0  4.5 0.15 0  4.55 0.15 0  4.6 0.15 0  4.65 0.15 0  4.7 0.15 0  4.75 0.15 0  4.8 0.15 0  4.85 0.15 0  4.9 0.15 0  4.95 0.15 0  5 0.15 0  0 0.18 0  0.05 0.18 0  0.1 0.18 0  0.15 0.18 0  0.2 0.18 0  0.25 0.18 0  0.3 0.18 0  0.35 0.18 0  0.4 0.18 0  0.45 0.18 0  0.5 0.18 0  0.55 0.18 0  0.6 0.18 0  0.65 0.18 0  0.7 0.18 0  0.75 0.18 0  0.8 0.18 0  0.85 0.18 0  0.9 0.18 0  0.95 0.18 0  1 0.18 0  1.05 0.18 0  1.1 0.18 0  1.15 0.18 0  1.2 0.18 0  1.25 0.18 0  1.3 0.18 0  1.35 0.18 0  1.4 0.18 0  1.45 0.18 0  1.5 0.18 0  1.55 0.18 0  1.6 0.18 0  1.65 0.18 0  1.7 0.18 0  1.75 0.18 0  1.8 0.18 0  1.85 0.18 0  1.9 0.18 0  1.95 0.18 0  2 0.18 0  2.05 0.18 0  2.1 0.18 0  2.15 0.18 0  2.2 0.18 0  2.25 0.18 0  2.3 0.18 0  2.35 0.18 0  2.4 0.18 0  2.45 0.18 0  2.5 0.18 0  2.55 0.18 0  2.6 0.18 0  2.65 0.18 0  2.7 0.18 0  2.75 0.18 0  2.8 0.18 0  2.85 0.18 0  2.9 0.18 0  2.95 0.18 0  3 0.18 0  3.05 0.18 0  3.1 0.18 0  3.15 0.18 0  3.2 0.18 0  3.25 0.18 0  3.3 0.18 0  3.35 0.18 0  3.4 0.18 0  3.45 0.18 0  3.5 0.18 0  3.55 0.18 0  3.6 0.18 0  3.65 0.18 0  3.7 0.18 0  3.75 0.18 0  3.8 0.18 0  3.85 0.18 0  3.9 0.18 0  3.95 0.18 0  4 0.18 0  4.05 0.18 0  4.1 0.18 0  4.15 0.18 0  4.2 0.18 0  4.25 0.18 0  4.3 0.18 0  4.35 0.18 0  4.4 0.18 0  4.45 0.18 0  4.5 0.18 0  4.55 0.18 0  4.6 0.18 0  4.65 0.18 0  4.7 0.18 0  4.75 0.18 0  4.8 0.18 0  4.85 0.18 0  4.9 0.18 0  4.95 0.18 0  5 0.18 0  0 0.21 0  0.05 0.21 0  0.1 0.21 0  0.15 0.21 0  0.2 0.21 0  0.25 0.21 0  0.3 0.21 0  0.35 0.21 0  0.4 0.21 0  0.45 0.21 0  0.5 0.21 0  0.55 0.21 0  0.6 0.21 0  0.65 0.21 0  0.7 0.21 0  0.75 0.21 0  0.8 0.21 0  0.85 0.21 0  0.9 0.21 0  0.95 0.21 0  1 0.21 0  1.05 0.21 0  1.1 0.21 0  1.15 0.21 0  1.2 0.21 0  1.25 0.21 0  1.3 0.21 0  1.35 0.21 0  1.4 0.21 0  1.45 0.21 0  1.5 0.21 0  1.55 0.21 0  1.6 0.21 0  1.65 0.21 0  1.7 0.21 0  1.75 0.21 0  1.8 0.21 0  1.85 0.21 0  1.9 0.21 0  1.95 0.21 0  2 0.21 0  2.05 0.21 0  2.1 0.21 0  2.15 0.21 0  2.2 0.21 0  2.25 0.21 0  2.3 0.21 0  2.35 0.21 0  2.4 0.21 0  2.45 0.21 0  2.5 0.21 0  2.55 0.21 0  2.6 0.21 0  2.65 0.21 0  2.7 0.21 0  2.75 0.21 0  2.8 0.21 0  2.85 0.21 0  2.9 0.21 0  2.95 0.21 0  3 0.21 0  3.05 0.21 0  3.1 0.21 0  3.15 0.21 0  3.2 0.21 0  3.25 0.21 0  3.3 0.21 0  3.35 0.21 0  3.4 0.21 0  3.45 0.21 0  3.5 0.21 0  3.55 0.21 0  3.6 0.21 0  3.65 0.21 0  3.7 0.21 0  3.75 0.21 0  3.8 0.21 0  3.85 0.21 0  3.9 0.21 0  3.95 0.21 0  4 0.21 0  4.05 0.21 0  4.1 0.21 0  4.15 0.21 0  4.2 0.21 0  4.25 0.21 0  4.3 0.21 0  4.35 0.21 0  4.4 0.21 0  4.45 0.21 0  4.5 0.21 0  4.55 0.21 0  4.6 0.21 0  4.65 0.21 0  4.7 0.21 0  4.75 0.21 0  4.8 0.21 0  4.85 0.21 0  4.9 0.21 0  4.95 0.21 0  5 0.21 0  0 0.24 0  0.05 0.24 0  0.1 0.24 0  0.15 0.24 0  0.2 0.24 0  0.25 0.24 0  0.3 0.24 0
[...]
<PointData  Scalars="f_104"> 
<DataArray  type="Float64"  Name="f_104"  format="ascii">-4.0325054861959887e-19  -4.1519934338384799e-05  -6.2333884095421073e-05  -7.5039114440364951e-05  -8.3674829252280069e-05  -9.0092894805338987e-05  -9.5254064587849574e-05  -9.9690227536282258e-05  -1.0369527587304441e-04  -1.0742909933744438e-04  -1.1097742997396087e-04  -1.1438592225420188e-04  -1.1767898476040635e-04  -1.2086986819074728e-04  -1.2396594133767442e-04  -1.2697141739103566e-04  -1.2988876763499939e-04  -1.3271946948112320e-04  -1.3546441590961295e-04  -1.3812414863583500e-04  -1.4069899572350880e-04  -1.4318915486811025e-04  -1.4559474444669957e-04  -1.4791583488530510e-04  -1.5015246784595110e-04  -1.5230466786742282e-04  -1.5437244936155733e-04  -1.5635582078050967e-04  -1.5825478708028970e-04  -1.6006935116898426e-04  -1.6179951475516754e-04  -1.6344527884415192e-04  -1.6500664402829463e-04  -1.6648361065703057e-04  -1.6787617893665932e-04  -1.6918434898903042e-04  -1.7040812088612174e-04  -1.7154749467044526e-04  -1.7260247036710090e-04  -1.7357304799089923e-04  -1.7445922755057763e-04  -1.7526100905128700e-04  -1.7597839249606088e-04  -1.7661137788668564e-04  -1.7715996522421349e-04  -1.7762415450925815e-04  -1.7800394574218610e-04  -1.7829933892320396e-04  -1.7851033405243412e-04  -1.7863693112994396e-04  -1.7867913015576689e-04  -1.7863693112991514e-04  -1.7851033405237723e-04  -1.7829933892311896e-04  -1.7800394574207269e-04  -1.7762415450911693e-04  -1.7715996522404425e-04  -1.7661137788649103e-04  -1.7597839249583973e-04  -1.7526100905104102e-04  -1.7445922755030937e-04  -1.7357304799061073e-04  -1.7260247036679415e-04  -1.7154749467012271e-04  -1.7040812088578504e-04  -1.6918434898868161e-04  -1.6787617893630332e-04  -1.6648361065667107e-04  -1.6500664402793486e-04  -1.6344527884379397e-04  -1.6179951475481228e-04  -1.6006935116863658e-04  -1.5825478707995322e-04  -1.5635582078018674e-04  -1.5437244936124863e-04  -1.5230466786712927e-04  -1.5015246784567685e-04  -1.4791583488505240e-04  -1.4559474444646774e-04  -1.4318915486790013e-04  -1.4069899572331985e-04  -1.3812414863566844e-04  -1.3546441590946801e-04  -1.3271946948099843e-04  -1.2988876763489273e-04  -1.2697141739094567e-04  -1.2396594133760091e-04  -1.2086986819068850e-04  -1.1767898476036022e-04  -1.1438592225416698e-04  -1.1097742997393419e-04  -1.0742909933742547e-04  -1.0369527587303190e-04  -9.9690227536275292e-05  -9.5254064587846078e-05  -9.0092894805338052e-05  -8.3674829252281601e-05  -7.5039114440367079e-05  -6.2333884095422767e-05  -4.1519934338385504e-05  -2.9493195116895722e-19  -2.6518247215713510e-19  -2.3058115447900143e-05  -4.1975781988051641e-05  -5.4228099085792044e-05  -6.2678440890107706e-05  -6.8989670501634249e-05  -7.4084818025240635e-05  -7.8480370126457702e-05  -8.2461026632725128e-05  -8.6180566895327290e-05  -8.9720707550644080e-05  -9.3124570485215313e-05  -9.6415034019088603e-05  -9.9604457532132573e-05  -1.0269970500074009e-04  -1.0570470889841156e-04  -1.0862178568745297e-04  -1.1145232724981140e-04  -1.1419717883393230e-04  -1.1685685509054875e-04  -1.1943166845887505e-04  -1.2192180746432559e-04  -1.2432738503424654e-04  -1.2664846833129753e-04  -1.2888509705755893e-04  -1.3103729457541780e-04  -1.3310507459266726e-04  -1.3508844514181361e-04  -1.3698741092979267e-04  -1.3880197471742890e-04  -1.4053213812648542e-04  -1.4217790211120559e-04  -1.4373926723393408e-04  -1.4521623382647206e-04  -1.4660880208475371e-04  -1.4791697212453172e-04  -1.4914074401419189e-04  -1.5028011779413085e-04  -1.5133509348820072e-04  -1.5230567111047455e-04  -1.5319185066925436e-04  -1.5399363216943505e-04  -1.5471101561389882e-04  -1.5534400100434233e-04  -1.5589258834176266e-04  -1.5635677762674557e-04  -1.5673656885963771e-04  -1.5703196204063517e-04  -1.5724295716985394e-04  -1.5736955424735759e-04  -1.5741175327317917e-04  -1.5736955424732949e-04  -1.5724295716979688e-04  -1.5703196204054978e-04  -1.5673656885952392e-04  -1.5635677762660408e-04  -1.5589258834159330e-04  -1.5534400100414595e-04  -1.5471101561367699e-04  -1.5399363216918928e-04  -1.5319185066898534e-04  -1.5230567111018539e-04  -1.5133509348789277e-04  -1.5028011779380783e-04  -1.4914074401385429e-04  -1.4791697212418104e-04  -1.4660880208439695e-04  -1.4521623382611192e-04  -1.4373926723357361e-04  -1.4217790211084612e-04  -1.4053213812612912e-04  -1.3880197471708079e-04  -1.3698741092945535e-04  -1.3508844514148940e-04  -1.3310507459235777e-04  -1.3103729457512419e-04  -1.2888509705728411e-04  -1.2664846833104388e-04  -1.2432738503401452e-04  -1.2192180746411583e-04  -1.1943166845868630e-04  -1.1685685509038265e-04  -1.1419717883378746e-04  -1.1145232724968731e-04  -1.0862178568734677e-04  -1.0570470889832199e-04  -1.0269970500066730e-04  -9.9604457532074324e-05  -9.6415034019043216e-05  -9.3124570485180266e-05  -8.9720707550618140e-05  -8.6180566895308939e-05  -8.2461026632713215e-05  -7.8480370126451468e-05  -7.4084818025237464e-05  -6.8989670501633653e-05  -6.2678440890109711e-05  -5.4228099085794308e-05  -4.1975781988053687e-05  -2.3058115447901075e-05  -2.0246537961942221e-19  -1.3436434295801472e-19  -1.2149856321685088e-05  -2.6196747666985491e-05  -3.6739652826079546e-05  -4.4459694604147721e-05  -5.0406983948782510e-05  -5.5307893240799873e-05  -5.9596398367648483e-05  -6.3517037720168875e-05  -6.7202525377853091e-05  -7.0723144964947036e-05  -7.4115708983361078e-05  -7.7399575667385067e-05  -8.0585119986414401e-05  -8.3678074427291852e-05  -8.6681718578911928e-05  -8.9597987955026493e-05  -9.2428050108778783e-05  -9.5172617327931181e-05  -9.7832125165903976e-05  -1.0040683894922209e-04  -1.0289691915817787e-04  -1.0530246205448375e-04  -1.0762352491979683e-04  -1.0986014161130150e-04  -1.1201233204092051e-04  -1.1408010788261103e-04  -1.1606347597121744e-04  -1.1796244030871815e-04  -1.1977700324098853e-04  -1.2150716614547065e-04  -1.2315292983248167e-04  -1.2471429477953392e-04  -1.2619126126840318e-04  -1.2758382946551075e-04  -1.2889199946919223e-04  -1.3011577133755756e-04  -1.3125514510493489e-04  -1.3231012079159519e-04  -1.3328069840949985e-04  -1.3416687796570363e-04  -1.3496865946436591e-04  -1.3568604290793471e-04  -1.3631902829785094e-04  -1.3686761563496162e-04  -1.3733180491976360e-04  -1.3771159615254890e-04  -1.3800698933348496e-04  -1.3821798446267002e-04  -1.3834458154015600e-04  -1.3838678056597245e-04  -1.3834458154012797e-04  -1.3821798446261244e-04  -1.3800698933339969e-04  -1.3771159615243500e-04  -1.3733180491962184e-04  -1.3686761563479243e-04  -1.3631902829765484e-04  -1.3568604290771266e-04  -1.3496865946411901e-04  -1.3416687796543385e-04  -1.3328069840920986e-04  -1.3231012079128654e-04  -1.3125514510461034e-04  -1.3011577133721893e-04  -1.2889199946884185e-04  -1.2758382946515264e-04  -1.2619126126804168e-04  -1.2471429477917242e-04  -1.2315292983212117e-04  -1.2150716614511363e-04  -1.1977700324063924e-04  -1.1796244030837973e-04  -1.1606347597089284e-04  -1.1408010788230062e-04  -1.1201233204062588e-04  -1.0986014161102610e-04  -1.0762352491954287e-04  -1.0530246205425181e-04  -1.0289691915796747e-04  -1.0040683894903349e-04  -9.7832125165737686e-05  -9.5172617327786427e-05  -9.2428050108654737e-05  -8.9597987954920553e-05  -8.6681718578822753e-05  -8.3678074427219264e-05  -8.0585119986356532e-05  -7.7399575667340168e-05  -7.4115708983326398e-05  -7.0723144964921286e-05  -6.7202525377835120e-05  -6.3517037720157694e-05  -5.9596398367642201e-05  -5.5307893240797135e-05  -5.0406983948782401e-05  -4.4459694604149815e-05  -3.6739652826082243e-05  -2.6196747666987564e-05  -1.2149856321686276e-05  -1.0124102018087023e-19  -5.3488536184806712e-20  -5.4952339906274924e-06  -1.4405433497479173e-05  -2.2463049307793171e-05  -2.8982915068482306e-05  -3.4323420477548691e-05  -3.8907048170871391e-05  -4.3026195213339144e-05  -4.6854853177832916e-05  -5.0489439359608513e-05  -5.3981304340879209e-05  -5.7357288701181620e-05  -6.0631425234391267e-05  -6.3811184844350400e-05  -6.6900674005720295e-05  -6.9902236520090090e-05  -7.2817256463057447e-05  -7.5646571005448559e-05  -7.8390692745381837e-05  -8.1049936278794135e-05  -8.3624493847671752e-05  -8.6114482000654161e-05  -8.8519970754680970e-05  -9.0841001807104318e-05  -9.3077599808355629e-05  -9.5229779251966589e-05  -9.7297548630603621e-05  -9.9280912913202564e-05  -1.0117987500725452e-04  -1.0299443661608561e-04  -1.0472459873942246e-04  -1.0637036196522953e-04  -1.0793172663995191e-04  -1.0940869296802943e-04  -1.1080126107021738e-04  -1.1210943101787953e-04  -1.1333320285319134e-04  -1.1447257660107044e-04  -1.1552755227622998e-04  -1.1649812988735247e-04  -1.1738430943955745e-04  -1.1818609093586226e-04  -1.1890347437804113e-04  -1.1953645976713851e-04  -1.2008504710376701e-04  -1.2054923638828540e-04  -1.2092902762090482e-04  -1.2122442080174453e-04  -1.2143541593087536e-04  -1.2156201300833493e-04  -1.2160421203414261e-04  -1.2156201300830595e-04  -1.2143541593081765e-04  -1.2122442080165921e-04  -1.2092902762079017e-04  -1.2054923638814338e-04  -1.2008504710359736e-04  -1.1953645976694191e-04  -1.1890347437781894e-04  -1.1818609093561467e-04  -1.1738430943928739e-04  -1.1649812988706213e-04  -1.1552755227592069e-04  -1.1447257660074471e-04  -1.1333320285285189e-04  -1.1210943101752875e-04  -1.1080126106985902e-04  -1.0940869296766699e-04  -1.0793172663958965e-04  -1.0637036196486828e-04  -1.0472459873906483e-04  -1.0299443661573589e-04  -1.0117987500691538e-04  -9.9280912912877344e-05  -9.7297548630292550e-05  -9.5229779251671957e-05  -9.3077599808080052e-05  -9.0841001806849598e-05  -8.8519970754448218e-05  -8.6114482000443270e-05  -8.3624493847483114e-05  -8.1049936278628062e-05  -7.8390692745236785e-05  -7.5646571005323781e-05  -7.2817256462951263e-05  -6.9902236520001321e-05  -6.6900674005647613e-05  -6.3811184844292341e-05  -6.0631425234346165e-05  -5.7357288701147142e-05  -5.3981304340853765e-05  -5.0489439359590807e-05  -4.6854853177821803e-05  -4.3026195213333181e-05  -3.8907048170868836e-05  -3.4323420477548643e-05  -2.8982915068484336e-05  -2.2463049307795804e-05  -1.4405433497481371e-05  -5.4952339906287841e-06  -4.1288454448317331e-20  -1.9089802817624200e-21  -1.0316358392349067e-06  -5.6505924393307121e-06  -1.1048353846713494e-05  -1.6108824649913655e-05  -2.0674319553213903e-05  -2.4848555759177004e-05  -2.8750767276186882e-05  -3.2463291523849315e-05  -3.6034581001872380e-05  -3.9491107481012058e-05  -4.2846840099121781e-05  -4.6109095297465599e-05  -4.9281762492448709e-05  -5.2366975377606536e-05  -5.5365950786156447e-05  -5.8279407859294199e-05  -6.1107782457419301e-05  -6.3851342147394884e-05  -6.6510251564887342e-05  -6.9084611536855814e-05  -7.1574483293953403e-05  -7.3979903662832122e-05  -7.6300894589148457e-05  -7.8537469049613925e-05  -8.0689634673384553e-05  -8.2757395929520798e-05  -8.4740755431729289e-05  -8.6639714708710829e-05  -8.8454274655688537e-05  -9.0184435797930026e-05  -9.1830198444295061e-05  -9.3391562776753748e-05  -9.4868528902682881e-05  -9.6261096885508275e-05  -9.7569266762711856e-05  -9.8793038556446163e-05  -9.9932412279796380e-05  -1.0098738794048898e-04  -1.0195796554307977e-04  -1.0284414509025407e-04  -1.0364592658359252e-04  -1.0436331002402253e-04  -1.0499629541208933e-04  -1.0554488274811018e-04  -1.0600907203227177e-04  -1.0638886326468127e-04  -1.0668425644539970e-04  -1.0689525157446247e-04  -1.0702184865188754e-04  -1.0706404767768557e-04  -1.0702184865185881e-04  -1.0689525157440474e-04  -1.0668425644531420e-04  -1.0638886326456691e-04  -1.0600907203212917e-04  -1.0554488274794069e-04  -1.0499629541189249e-04  -1.0436331002380004e-04  -1.0364592658334494e-04  -1.0284414508998379e-04  -1.0195796554278941e-04  -1.0098738794017933e-04  -9.9932412279470632e-05  -9.8793038556105887e-05  -9.7569266762360682e-05  -9.6261096885149269e-05  -9.4868528902320161e-05  -9.3391562776390364e-05  -9.1830198443933398e-05  -9.0184435797571914e-05  -8.8454274655338244e-05  -8.6639714708371501e-05  -8.4740755431403323e-05  -8.2757395929209402e-05  -8.0689634673089609e-05  -7.8537469049338145e-05  -7.6300894588893575e-05  -7.3979903662599019e-05  -7.1574483293742133e-05  -6.9084611536667257e-05  -6.6510251564721052e-05  -6.3851342147249561e-05  -6.1107782457294049e-05  -5.8279407859187567e-05  -5.5365950786067305e-05  -5.2366975377533996e-05  -4.9281762492390602e-05  -4.6109095297420273e-05  -4.2846840099087243e-05  -3.9491107480986464e-05  -3.6034581001854640e-05  -3.2463291523838175e-05  -2.8750767276180865e-05  -2.4848555759174605e-05  -2.0674319553213984e-05  -1.6108824649915634e-05  -1.1048353846716025e-05  -5.6505924393329398e-06  -1.0316358392362668e-06  -1.5046590792595332e-21  3.4240349818936769e-20  2.1266146754859065e-06  8.7939385755171698e-07  -2.0624542123973085e-06  -5.6310302289990041e-06  -9.3607255785639201e-06  -1.3083360712683542e-05  -1.6744790333447685e-05  -2.0328677999011818e-05  -2.3830226931545906e-05  -2.7248022125476744e-05  -3.0581631635294358e-05  -3.3830916342061210e-05  -3.6995828955543091e-05  -4.0076352788386700e-05  -4.3072481860541991e-05  -4.5984214033774854e-05  -4.8811548553076244e-05  -5.1554485156229950e-05  -5.4213023753625691e-05  -5.6787164315033189e-05  -5.9276906830331963e-05  -6.1682251296135495e-05  -6.4003197711299620e-05  -6.6239746075424030e-05  -6.8391896388357180e-05  -7.0459648650030888e-05  -7.2443002860407140e-05  -7.4341959019457623e-05  -7.6156517127157984e-05  -7.7886677183484573e-05  -7.9532439188417103e-05  -8.1093803141935557e-05  -8.2570769044021421e-05  -8.3963336894655628e-05  -8.5271506693820857e-05  -8.6495278441501604e-05  -8.7634652137681958e-05  -8.8689627782348977e-05  -8.9660205375488729e-05  -9.0546384917090399e-05  -9.1348166407142738e-05  -9.2065549845634755e-05  -9.2698535232559133e-05  -9.3247122567907020e-05  -9.3711311851672494e-05  -9.4091103083848712e-05  -9.4386496264432299e-05  -9.4597491393419610e-05  -9.4724088470806632e-05  -9.4766287496592986e-05  -9.4724088470777792e-05  -9.4597491393361971e-05  -9.4386496264346729e-05  -9.4091103083734356e-05  -9.3711311851529393e-05  -9.3247122567736881e-05  -9.2698535232362147e-05  -9.2065549845411952e-05  -9.1348166406894659e-05  -9.0546384916820202e-05  -8.9660205375198407e-05  -8.8689627782039072e-05  -8.7634652137355586e-05  -8.6495278441161042e-05  -8.5271506693469724e-05  -8.3963336894297069e-05  -8.2570769043658620e-05  -8.1093803141572227e-05  -7.9532439188055210e-05  -7.7886677183126732e-05  -7.6156517126807488e-05  -7.4341959019117983e-05  -7.2443002860080673e-05  -7.0459648649718923e-05  -6.8391896388062087e-05  -6.6239746075148249e-05  -6.4003197711044507e-05  -6.1682251295902080e-05  -5.9276906830120259e-05  -5.6787164314844144e-05  -5.4213023753459097e-05  -5.1554485156084165e-05  -4.8811548552950409e-05  -4.5984214033667999e-05  -4.3072481860452720e-05  -4.0076352788313760e-05  -3.6995828955484693e-05  -3.3830916342015606e-05  -3.0581631635259711e-05  -2.7248022125451110e-05  -2.3830226931528176e-05  -2.0328677999000580e-05  -1.6744790333441586e-05  -1.3083360712681128e-05  -9.3607255785640590e-06  -5.6310302290008219e-06  -2.0624542123997522e-06  8.7939385754952020e-07  2.1266146754845271e-06  2.3960927193857379e-20  6.0307848224294208e-20  4.4046469037944878e-06  5.7634713683803121e-06  4.8934632134470294e-06  2.6713703210861663e-06  -2.6962507210177427e-07  -3.5547257317697919e-06  -6.9794631111369919e-06  -1.0435916281407994e-05  -1.3868093157969445e-05  -1.7247276920635670e-05  -2.0558804512676522e-05  -2.3795133384186507e-05  -2.6952296691422626e-05  -3.0028133359991701e-05  -3.3021416761525519e-05  -3.5931424265476563e-05  -3.8757718784520099e-05  -4.1500032327267097e-05  -4.4158200113372467e-05  -4.6732121267143949e-05  -4.9221734541615089e-05  -5.1627003104666798e-05  -5.3947905008785676e-05  -5.6184427276603695e-05  -5.8336562278708896e-05  -6.0404305545922683e-05  -6.2387654464465773e-05  -6.4286607505584088e-05  -6.6101163774004838e-05  -6.7831322744415240e-05  -6.9477084107913382e-05  -7.1038447682490166e-05  -7.2515413360730688e-05  -7.3907981079172419e-05  -7.5216150800297806e-05  -7.6439922501923406e-05  -7.7579296170932638e-05  -7.8634271799573076e-05  -7.9604849383261322e-05  -8.0491028919288892e-05  -8.1292810406053876e-05  -8.2010193842607448e-05  -8.2643179228388507e-05  -8.3191766563062820e-05  -8.3655955846431436e-05  -8.4035747078374943e-05  -8.4331140258823276e-05  -8.4542135387734299e-05  -8.4668732465083035e-05  -8.4710931490857857e-05  -8.4668732465054738e-05  -8.4542135387676837e-05  -8.4331140258737597e-05  -8.4035747078260587e-05  -8.3655955846288660e-05  -8.3191766562892735e-05  -8.2643179228191792e-05  -8.2010193842384604e-05  -8.1292810405806190e-05  -8.0491028919018803e-05  -7.9604849382970580e-05  -7.8634271799263197e-05  -7.7579296170606239e-05  -7.6439922501582981e-05  -7.5216150799947175e-05  -7.3907981078814186e-05  -7.2515413360368144e-05  -7.1038447682126592e-05  -6.9477084107551299e-05  -6.7831322744057548e-05  -6.6101163773654858e-05  -6.4286607505244475e-05  -6.2387654464139320e-05  -6.0404305545610880e-05  -5.8336562278414006e-05  -5.6184427276327854e-05  -5.3947905008530590e-05  -5.1627003104433173e-05  -4.9221734541403419e-05  -4.6732121266954919e-05  -4.4158200113205486e-05  -4.1500032327121082e-05  -3.8757718784393972e-05  -3.5931424265369356e-05  -3.3021416761436140e-05  -3.0028133359918392e-05  -2.6952296691363926e-05  -2.3795133384140625e-05  -2.0558804512641627e-05  -1.7247276920609943e-05  -1.3868093157951486e-05  -1.0435916281396620e-05  -6.9794631111306959e-06  -3.5547257317672804e-06  -2.6962507210181392e-07  2.6713703210845366e-06  4.8934632134447576e-06  5.7634713683782200e-06  4.4046469037931275e-06  4.4668743887159880e-20  7.7628961783540519e-20  6.0442654975959067e-06  9.3941767239349212e-06  1.0132237258449833e-05  8.9902211169327051e-06  6.7036895872039379e-06  3.7918555648696329e-06  5.7341662269319412e-07  -2.7700804739152637e-06  -6.1399494158681830e-06  -9.4841192788591398e-06  -1.2775506903164887e-05  -1.5999994066718267e-05  -1.9150079133769946e-05  -2.2221644567157298e-05  -2.5212342631210986e-05  -2.8120787875701646e-05  -3.0946142658025792e-05  -3.3687894220571835e-05  -3.6345727914032048e-05  -3.8919451478635874e-05  -4.1408948359797025e-05  -4.3814148538557211e-05  -4.6135010316852934e-05  -4.8371509043976210e-05  -5.0523630226267600e-05  -5.2591365370985249e-05  -5.4574709509135502e-05  -5.6473659733179029e-05  -5.8288214339740843e-05  -6.0018372329050140e-05  -6.1664133113101214e-05  -6.3225496345408966e-05  -6.4702461821497160e-05  -6.6095029420571133e-05  -6.7403199071233502e-05  -6.8626970731277103e-05  -6.9766344375754797e-05  -7.0821319989924388e-05  -7.1791897565077876e-05  -7.2678077096071956e-05  -7.3479858579867703e-05  -7.4197242014670411e-05  -7.4830227399418265e-05  -7.5378814733483690e-05  -7.5843004016493151e-05  -7.6222795248226201e-05  -7.6518188428552155e-05  -7.6729183557394277e-05  -7.6855780634708468e-05  -7.6897979660472542e-05  -7.6855780634679764e-05  -7.6729183557336828e-05  -7.6518188428466381e-05  -7.6222795248111655e-05  -7.5843004016350375e-05  -7.5378814733313471e-05  -7.4830227399221686e-05  -7.4197242014447309e-05  -7.3479858579620220e-05  -7.2678077095802152e-05  -7.1791897564787405e-05  -7.0821319989614658e-05  -6.9766344375428289e-05  -6.8626970730937341e-05  -6.7403199070883399e-05  -6.6095029420213346e-05  -6.4702461821134765e-05  -6.3225496345045555e-05  -6.1664133112739348e-05  -6.0018372328693017e-05  -5.8288214339391405e-05  -5.6473659732839722e-05  -5.4574709508809136e-05  -5.2591365370673676e-05  -5.0523630225972833e-05  -4.8371509043700788e-05  -4.6135010316598044e-05  -4.3814148538323640e-05  -4.1408948359585477e-05  -3.8919451478446904e-05  -3.6345727913864952e-05  -3.3687894220425718e-05  -3.0946142657899231e-05  -2.8120787875594154e-05  -2.5212342631121190e-05  -2.2221644567083691e-05  -1.9150079133711026e-05  -1.5999994066671982e-05  -1.2775506903129688e-05  -9.484119278