<?xml version="1.0"?>
<VTKFile type="UnstructuredGrid"  version="0.1"  >
<UnstructuredGrid>
<Piece  NumberOfPoints="2111" NumberOfCells="4000">
<Points>
<DataArray  type="Float64"  NumberOfComponents="3"  format="ascii">0 0 0  0.05 0 0  0.1 0 0  0.15 0 0  0.2 0 0  0.25 0 0  0.3 0 0  0.35 0 0  0.4 0 0  0.45 0 0  0.5 0 0  0.55 0 0  0.6 0 0  0.65 0 0  0.7 0 0  0.75 0 0  0.8 0 0  0.85 0 0  0.9 0 0  0.95 0 0  1 0 0  1.05 0 0  1.1 0 0  1.15 0 0  1.2 0 0  1.25 0 0  1.3 0 0  1.35 0 0  1.4 0 0  1.45 0 0  1.5 0 0  1.55 0 0  1.6 0 0  1.65 0 0  1.7 0 0  1.75 0 0  1.8 0 0  1.85 0 0  1.9 0 0  1.95 0 0  2 0 0  2.05 0 0  2.1 0 0  2.15 0 0  2.2 0 0  2.25 0 0  2.3 0 0  2.35 0 0  2.4 0 0  2.45 0 0  2.5 0 0  2.55 0 0  2.6 0 0  2.65 0 0  2.7 0 0  2.75 0 0  2.8 0 0  2.85 0 0  2.9 0 0  2.95 0 0  3 0 0  3.05 0 0  3.1 0 0  3.15 0 0  3.2 0 0  3.25 0 0  3.3 0 0  3.35 0 0  3.4 0 0  3.45 0 0  3.5 0 0  3.55 0 0  3.6 0 0  3.65 0 0  3.7 0 0  3.75 0 0  3.8 0 0  3.85 0 0  3.9 0 0  3.95 0 0  4 0 0  4.05 0 0  4.1 0 0  4.15 0 0  4.2 0 0  4.25 0 0  4.3 0 0  4.35 0 0  4.4 0 0  4.45 0 0  4.5 0 0  4.55 0 0  4.6 0 0  4.65 0 0  4.7 0 0  4.75 0 0  4.8 0 0  4.85 0 0  4.9 0 0  4.95 0 0  5 0 0  0 0.03 0  0.05 0.03 0  0.1 0.03 0  0.15 0.03 0  0.2 0.03 0  0.25 0.03 0  0.3 0.03 0  0.35 0.03 0  0.4 0.03 0  0.45 0.03 0  0.5 0.03 0  0.55 0.03 0  0.6 0.03 0  0.65 0.03 0  0.7 0.03 0  0.75 0.03 0  0.8 0.03 0  0.85 0.03 0  0.9 0.03 0  0.95 0.03 0  1 0.03 0  1.05 0.03 0  1.1 0.03 0  1.15 0.03 0  1.2 0.03 0  1.25 0.03 0  1.3 0.03 0  1.35 0.03 0  1.4 0.03 0  1.45 0.03 0  1.5 0.03 0  1.55 0.03 0  1.6 0.03 0  1.65 0.03 0  1.7 0.03 0  1.75 0.03 0  1.8 0.03 0  1.85 0.03 0  1.9 0.03 0  1.95 0.03 0  2 0.03 0  2.05 0.03 0  2.1 0.03 0  2.15 0.03 0  2.2 0.03 0  2.25 0.03 0  2.3 0.03 0  2.35 0.03 0  2.4 0.03 0  2.45 0.03 0  2.5 0.03 0  2.55 0.03 0  2.6 0.03 0  2.65 0.03 0  2.7 0.03 0  2.75 0.03 0  2.8 0.03 0  2.85 0.03 0  2.9 0.03 0  2.95 0.03 0  3 0.03 0  3.05 0.03 0  3.1 0.03 0  3.15 0.03 0  3.2 0.03 0  3.25 0.03 0  3.3 0.03 0  3.35 0.03 0  3.4 0.03 0  3.45 0.03 0  3.5 0.03 0  3.55 0.03 0  3.6 0.03 0  3.65 0.03 0  3.7 0.03 0  3.75 0.03 0  3.8 0.03 0  3.85 0.03 0  3.9 0.03 0  3.95 0.03 0  4 0.03 0  4.05 0.03 0  4.1 0.03 0  4.15 0.03 0  4.2 0.03 0  4.25 0.03 0  4.3 0.03 0  4.35 0.03 0  4.4 0.03 0  4.45 0.03 0  4.5 0.03 0  4.55 0.03 0  4.6 0.03 0  4.65 0.03 0  4.7 0.03 0  4.75 0.03 0  4.8 0.03 0  4.85 0.03 0  4.9 0.03 0  4.95 0.03 0  5 0.03 0  0 0.06 0  0.05 0.06 0  0.1 0.06 0  0.15 0.06 0  0.2 0.06 0  0.25 0.06 0  0.3 0.06 0  0.35 0.06 0  0.4 0.06 0  0.45 0.06 0  0.5 0.06 0  0.55 0.06 0  0.6 0.06 0  0.65 0.06 0  0.7 0.06 0  0.75 0.06 0  0.8 0.06 0  0.85 0.06 0  0.9 0.06 0  0.95 0.06 0  1 0.06 0  1.05 0.06 0  1.1 0.06 0  1.15 0.06 0  1.2 0.06 0  1.25 0.06 0  1.3 0.06 0  1.35 0.06 0  1.4 0.06 0  1.45 0.06 0  1.5 0.06 0  1.55 0.06 0  1.6 0.06 0  1.65 0.06 0  1.7 0.06 0  1.75 0.06 0  1.8 0.06 0  1.85 0.06 0  1.9 0.06 0  1.95 0.06 0  2 0.06 0  2.05 0.06 0  2.1 0.06 0  2.15 0.06 0  2.2 0.06 0  2.25 0.06 0  2.3 0.06 0  2.35 0.06 0  2.4 0.06 0  2.45 0.06 0  2.5 0.06 0  2.55 0.06 0  2.6 0.06 0  2.65 0.06 0  2.7 0.06 0  2.75 0.06 0  2.8 0.06 0  2.85 0.06 0  2.9 0.06 0  2.95 0.06 0  3 0.06 0  3.05 0.06 0  3.1 0.06 0  3.15 0.06 0  3.2 0.06 0  3.25 0.06 0  3.3 0.06 0  3.35 0.06 0  3.4 0.06 0  3.45 0.06 0  3.5 0.06 0  3.55 0.06 0  3.6 0.06 0  3.65 0.06 0  3.7 0.06 0  3.75 0.06 0  3.8 0.06 0  3.85 0.06 0  3.9 0.06 0  3.95 0.06 0  4 0.06 0  4.05 0.06 0  4.1 0.06 0  4.15 0.06 0  4.2 0.06 0  4.25 0.06 0  4.3 0.06 0  4.35 0.06 0  4.4 0.06 0  4.45 0.06 0  4.5 0.06 0  4.55 0.06 0  4.6 0.06 0  4.65 0.06 0  4.7 0.06 0  4.75 0.06 0  4.8 0.06 0  4.85 0.06 0  4.9 0.06 0  4.95 0.06 0  5 0.06 0  0 0.09 0  0.05 0.09 0  0.1 0.09 0  0.15 0.09 0  0.2 0.09 0  0.25 0.09 0  0.3 0.09 0  0.35 0.09 0  0.4 0.09 0  0.45 0.09 0  0.5 0.09 0  0.55 0.09 0  0.6 0.09 0  0.65 0.09 0  0.7 0.09 0  0.75 0.09 0  0.8 0.09 0  0.85 0.09 0  0.9 0.09 0  0.95 0.09 0  1 0.09 0  1.05 0.09 0  1.1 0.09 0  1.15 0.09 0  1.2 0.09 0  1.25 0.09 0  1.3 0.09 0  1.35 0.09 0  1.4 0.09 0  1.45 0.09 0  1.5 0.09 0  1.55 0.09 0  1.6 0.09 0  1.65 0.09 0  1.7 0.09 0  1.75 0.09 0  1.8 0.09 0  1.85 0.09 0  1.9 0.09 0  1.95 0.09 0  2 0.09 0  2.05 0.09 0  2.1 0.09 0  2.15 0.09 0  2.2 0.09 0  2.25 0.09 0  2.3 0.09 0  2.35 0.09 0  2.4 0.09 0  2.45 0.09 0  2.5 0.09 0  2.55 0.09 0  2.6 0.09 0  2.65 0.09 0  2.7 0.09 0  2.75 0.09 0  2.8 0.09 0  2.85 0.09 0  2.9 0.09 0  2.95 0.09 0  3 0.09 0  3.05 0.09 0  3.1 0.09 0  3.15 0.09 0  3.2 0.09 0  3.25 0.09 0  3.3 0.09 0  3.35 0.09 0  3.4 0.09 0  3.45 0.09 0  3.5 0.09 0  3.55 0.09 0  3.6 0.09 0  3.65 0.09 0  3.7 0.09 0  3.75 0.09 0  3.8 0.09 0  3.85 0.09 0  3.9 0.09 0  3.95 0.09 0  4 0.09 0  4.05 0.09 0  4.1 0.09 0  4.15 0.09 0  4.2 0.09 0  4.25 0.09 0  4.3 0.09 0  4.35 0.09 0  4.4 0.09 0  4.45 0.09 0  4.5 0.09 0  4.55 0.09 0  4.6 0.09 0  4.65 0.09 0  4.7 0.09 0  4.75 0.09 0  4.8 0.09 0  4.85 0.09 0  4.9 0.09 0  4.95 0.09 0  5 0.09 0  0 0.12 0  0.05 0.12 0  0.1 0.12 0  0.15 0.12 0  0.2 0.12 0  0.25 0.12 0  0.3 0.12 0  0.35 0.12 0  0.4 0.12 0  0.45 0.12 0  0.5 0.12 0  0.55 0.12 0  0.6 0.12 0  0.65 0.12 0  0.7 0.12 0  0.75 0.12 0  0.8 0.12 0  0.85 0.12 0  0.9 0.12 0  0.95 0.12 0  1 0.12 0  1.05 0.12 0  1.1 0.12 0  1.15 0.12 0  1.2 0.12 0  1.25 0.12 0  1.3 0.12 0  1.35 0.12 0  1.4 0.12 0  1.45 0.12 0  1.5 0.12 0  1.55 0.12 0  1.6 0.12 0  1.65 0.12 0  1.7 0.12 0  1.75 0.12 0  1.8 0.12 0  1.85 0.12 0  1.9 0.12 0  1.95 0.12 0  2 0.12 0  2.05 0.12 0  2.1 0.12 0  2.15 0.12 0  2.2 0.12 0  2.25 0.12 0  2.3 0.12 0  2.35 0.12 0  2.4 0.12 0  2.45 0.12 0  2.5 0.12 0  2.55 0.12 0  2.6 0.12 0  2.65 0.12 0  2.7 0.12 0  2.75 0.12 0  2.8 0.12 0  2.85 0.12 0  2.9 0.12 0  2.95 0.12 0  3 0.12 0  3.05 0.12 0  3.1 0.12 0  3.15 0.12 0  3.2 0.12 0  3.25 0.12 0  3.3 0.12 0  3.35 0.12 0  3.4 0.12 0  3.45 0.12 0  3.5 0.12 0  3.55 0.12 0  3.6 0.12 0  3.65 0.12 0  3.7 0.12 0  3.75 0.12 0  3.8 0.12 0  3.85 0.12 0  3.9 0.12 0  3.95 0.12 0  4 0.12 0  4.05 0.12 0  4.1 0.12 0  4.15 0.12 0  4.2 0.12 0  4.25 0.12 0  4.3 0.12 0  4.35 0.12 0  4.4 0.12 0  4.45 0.12 0  4.5 0.12 0  4.55 0.12 0  4.6 0.12 0  4.65 0.12 0  4.7 0.12 0  4.75 0.12 0  4.8 0.12 0  4.85 0.12 0  4.9 0.12 0  4.95 0.12 0  5 0.12 0  0 0.15 0  0.05 0.15 0  0.1 0.15 0  0.15 0.15 0  0.2 0.15 0  0.25 0.15 0  0.3 0.15 0  0.35 0.15 0  0.4 0.15 0  0.45 0.15 0  0.5 0.15 0  0.55 0.15 0  0.6 0.15 0  0.65 0.15 0  0.7 0.15 0  0.75 0.15 0  0.8 0.15 0  0.85 0.15 0  0.9 0.15 0  0.95 0.15 0  1 0.15 0  1.05 0.15 0  1.1 0.15 0  1.15 0.15 0  1.2 0.15 0  1.25 0.15 0  1.3 0.15 0  1.35 0.15 0  1.4 0.15 0  1.45 0.15 0  1.5 0.15 0  1.55 0.15 0  1.6 0.15 0  1.65 0.15 0  1.7 0.15 0  1.75 0.15 0  1.8 0.15 0  1.85 0.15 0  1.9 0.15 0  1.95 0.15 0  2 0.15 0  2.05 0.15 0  2.1 0.15 0  2.15 0.15 0  2.2 0.15 0  2.25 0.15 0  2.3 0.15 0  2.35 0.15 0  2.4 0.15 0  2.45 0.15 0  2.5 0.15 0  2.55 0.15 0  2.6 0.15 0  2.65 0.15 0  2.7 0.15 0  2.75 0.15 0  2.8 0.15 0  2.85 0.15 0  2.9 0.15 0  2.95 0.15 0  3 0.15 0  3.05 0.15 0  3.1 0.15 0  3.15 0.15 0  3.2 0.15 0  3.25 0.15 0  3.3 0.15 0  3.35 0.15 0  3.4 0.15 0  3.45 0.15 0  3.5 0.15 0  3.55 0.15 0  3.6 0.15 0  3.65 0.15 0  3.7 0.15 0  3.75 0.15 0  3.8 0.15 0  3.85 0.15 0  3.9 0.15 0  3.95 0.15 0  4 0.15 0  4.05 0.15 0  4.1 0.15 0  4.15 0.15 0  4.2 0.15 0  4.25 0.15 0  4.3 0.15 0  4.35 0.15 0  4.4 0.15 0  4.45 0.15 0  4.5 0.15 0  4.55 0.15 0  4.6 0.15 0  4.65 0.15 0  4.7 0.15 0  4.75 0.15 0  4.8 0.15 0  4.85 0.15 0  4.9 0.15 0  4.95 0.15 0  5 0.15 0  0 0.18 0  0.05 0.18 0  0.1 0.18 0  0.15 0.18 0  0.2 0.18 0  0.25 0.18 0  0.3 0.18 0  0.35 0.18 0  0.4 0.18 0  0.45 0.18 0  0.5 0.18 0  0.55 0.18 0  0.6 0.18 0  0.65 0.18 0  0.7 0.18 0  0.75 0.18 0  0.8 0.18 0  0.85 0.18 0  0.9 0.18 0  0.95 0.18 0  1 0.18 0  1.05 0.18 0  1.1 0.18 0  1.15 0.18 0  1.2 0.18 0  1.25 0.18 0  1.3 0.18 0  1.35 0.18 0  1.4 0.18 0  1.45 0.18 0  1.5 0.18 0  1.55 0.18 0  1.6 0.18 0  1.65 0.18 0  1.7 0.18 0  1.75 0.18 0  1.8 0.18 0  1.85 0.18 0  1.9 0.18 0  1.95 0.18 0  2 0.18 0  2.05 0.18 0  2.1 0.18 0  2.15 0.18 0  2.2 0.18 0  2.25 0.18 0  2.3 0.18 0  2.35 0.18 0  2.4 0.18 0  2.45 0.18 0  2.5 0.18 0  2.55 0.18 0  2.6 0.18 0  2.65 0.18 0  2.7 0.18 0  2.75 0.18 0  2.8 0.18 0  2.85 0.18 0  2.9 0.18 0  2.95 0.18 0  3 0.18 0  3.05 0.18 0  3.1 0.18 0  3.15 0.18 0  3.2 0.18 0  3.25 0.18 0  3.3 0.18 0  3.35 0.18 0  3.4 0.18 0  3.45 0.18 0  3.5 0.18 0  3.55 0.18 0  3.6 0.18 0  3.65 0.18 0  3.7 0.18 0  3.75 0.18 0  3.8 0.18 0  3.85 0.18 0  3.9 0.18 0  3.95 0.18 0  4 0.18 0  4.05 0.18 0  4.1 0.18 0  4.15 0.18 0  4.2 0.18 0  4.25 0.18 0  4.3 0.18 0  4.35 0.18 0  4.4 0.18 0  4.45 0.18 0  4.5 0.18 0  4.55 0.18 0  4.6 0.18 0  4.65 0.18 0  4.7 0.18 0  4.75 0.18 0  4.8 0.18 0  4.85 0.18 0  4.9 0.18 0  4.95 0.18 0  5 0.18 0  0 0.21 0  0.05 0.21 0  0.1 0.21 0  0.15 0.21 0  0.2 0.21 0  0.25 0.21 0  0.3 0.21 0  0.35 0.21 0  0.4 0.21 0  0.45 0.21 0  0.5 0.21 0  0.55 0.21 0  0.6 0.21 0  0.65 0.21 0  0.7 0.21 0  0.75 0.21 0  0.8 0.21 0  0.85 0.21 0  0.9 0.21 0  0.95 0.21 0  1 0.21 0  1.05 0.21 0  1.1 0.21 0  1.15 0.21 0  1.2 0.21 0  1.25 0.21 0  1.3 0.21 0  1.35 0.21 0  1.4 0.21 0  1.45 0.21 0  1.5 0.21 0  1.55 0.21 0  1.6 0.21 0  1.65 0.21 0  1.7 0.21 0  1.75 0.21 0  1.8 0.21 0  1.85 0.21 0  1.9 0.21 0  1.95 0.21 0  2 0.21 0  2.05 0.21 0  2.1 0.21 0  2.15 0.21 0  2.2 0.21 0  2.25 0.21 0  2.3 0.21 0  2.35 0.21 0  2.4 0.21 0  2.45 0.21 0  2.5 0.21 0  2.55 0.21 0  2.6 0.21 0  2.65 0.21 0  2.7 0.21 0  2.75 0.21 0  2.8 0.21 0  2.85 0.21 0  2.9 0.21 0  2.95 0.21 0  3 0.21 0  3.05 0.21 0  3.1 0.21 0  3.15 0.21 0  3.2 0.21 0  3.25 0.21 0  3.3 0.21 0  3.35 0.21 0  3.4 0.21 0  3.45 0.21 0  3.5 0.21 0  3.55 0.21 0  3.6 0.21 0  3.65 0.21 0  3.7 0.21 0  3.75 0.21 0  3.8 0.21 0  3.85 0.21 0  3.9 0.21 0  3.95 0.21 0  4 0.21 0  4.05 0.21 0  4.1 0.21 0  4.15 0.21 0  4.2 0.21 0  4.25 0.21 0  4.3 0.21 0  4.35 0.21 0  4.4 0.21 0  4.45 0.21 0  4.5 0.21 0  4.55 0.21 0  4.6 0.21 0  4.65 0.21 0  4.7 0.21 0  4.75 0.21 0  4.8 0.21 0  4.85 0.21 0  4.9 0.21 0  4.95 0.21 0  5 0.21 0  0 0.24 0  0.05 0.24 0  0.1 0.24 0  0.15 0.24 0  0.2 0.24 0  0.25 0.24 0  0.3 0.24 0
[...]
<PointData  Scalars="f_138"> 
<DataArray  type="Float64"  Name="f_138"  format="ascii">-4.1772620933927676e-19  -4.2025920247885569e-05  -6.3459934568441898e-05  -7.7033483456034774e-05  -8.6788685102908496e-05  -9.4564184553968771e-05  -1.0130438430299237e-04  -1.0752448366964173e-04  -1.1350196274322861e-04  -1.1938068226901040e-04  -1.2523073337923174e-04  -1.3108251164817777e-04  -1.3694554525725314e-04  -1.4281858169204635e-04  -1.4869486333789154e-04  -1.5456485369387429e-04  -1.6041765105541817e-04  -1.6624173654730581e-04  -1.7202538356608975e-04  -1.7775689094719823e-04  -1.8342472057833930e-04  -1.8901758068296299e-04  -1.9452447687010456e-04  -1.9993474350176702e-04  -2.0523806287994935e-04  -2.1042447688741158e-04  -2.1548439398396980e-04  -2.2040859337375625e-04  -2.2518822746875837e-04  -2.2981482333704197e-04  -2.3428028355116029e-04  -2.3857688668440607e-04  -2.4269728760111878e-04  -2.4663451762671463e-04  -2.5038198464747568e-04  -2.5393347316923456e-04  -2.5728314435195408e-04  -2.6042553603013125e-04  -2.6335556272485440e-04  -2.6606851565092046e-04  -2.6856006272105263e-04  -2.7082624854839427e-04  -2.7286349444796898e-04  -2.7466859843755260e-04  -2.7623873523819140e-04  -2.7757145627449177e-04  -2.7866468967481517e-04  -2.7951674027136314e-04  -2.8012628960025454e-04  -2.8049239590155359e-04  -2.8061449411929289e-04  -2.8049239590148463e-04  -2.8012628960011798e-04  -2.7951674027115964e-04  -2.7866468967454374e-04  -2.7757145627415355e-04  -2.7623873523778731e-04  -2.7466859843708677e-04  -2.7286349444743973e-04  -2.7082624854780685e-04  -2.6856006272040986e-04  -2.6606851565022749e-04  -2.6335556272411703e-04  -2.6042553602935269e-04  -2.5728314435114039e-04  -2.5393347316838850e-04  -2.5038198464660843e-04  -2.4663451762583323e-04  -2.4269728760022935e-04  -2.3857688668351402e-04  -2.3428028355026886e-04  -2.2981482333616124e-04  -2.2518822746789462e-04  -2.2040859337291572e-04  -2.1548439398315513e-04  -2.1042447688662613e-04  -2.0523806287920028e-04  -1.9993474350105968e-04  -1.9452447686944008e-04  -1.8901758068234369e-04  -1.8342472057776489e-04  -1.7775689094667185e-04  -1.7202538356561066e-04  -1.6624173654687373e-04  -1.6041765105502995e-04  -1.5456485369352835e-04  -1.4869486333758840e-04  -1.4281858169178335e-04  -1.3694554525702781e-04  -1.3108251164798689e-04  -1.2523073337907190e-04  -1.1938068226888001e-04  -1.1350196274312457e-04  -1.0752448366956190e-04  -1.0130438430293269e-04  -9.4564184553926487e-05  -8.6788685102881676e-05  -7.7033483456018511e-05  -6.3459934568433591e-05  -4.2025920247881795e-05  -2.9236916015994740e-19  -2.6934260902690858e-19  -2.3450416263603991e-05  -4.2990383393913249e-05  -5.6117665509523898e-05  -6.5694409164799737e-05  -7.3369957775950843e-05  -8.0050909474166382e-05  -8.6237031535098298e-05  -9.2196602460514049e-05  -9.8067370314368940e-05  -1.0391541039794879e-04  -1.0976858567159958e-04  -1.1563489407439423e-04  -1.2151219178617133e-04  -1.2739321638102140e-04  -1.3326815064312165e-04  -1.3912593804637737e-04  -1.4495497418601813e-04  -1.5074348472683962e-04  -1.5647974143963200e-04  -1.6215219058759534e-04  -1.6774953122411816e-04  -1.7326076350852144e-04  -1.7867521853943914e-04  -1.8398257665892578e-04  -1.8917287857334500e-04  -1.9423653203846697e-04  -1.9916431583877621e-04  -2.0394738213718580e-04  -2.0857725785449873e-04  -2.1304584547645862e-04  -2.1734542352528833e-04  -2.2146864683531326e-04  -2.2540854671431831e-04  -2.2915853103821951e-04  -2.3271238430675115e-04  -2.3606426767628521e-04  -2.3920871897920287e-04  -2.4214065273534549e-04  -2.4485536015877193e-04  -2.4734850916176970e-04  -2.4961614435722672e-04  -2.5165468706001421e-04  -2.5346093528782018e-04  -2.5503206376163414e-04  -2.5636562390603463e-04  -2.5745954384936423e-04  -2.5831212842381327e-04  -2.5892205916549436e-04  -2.5928839431446795e-04  -2.5941056881476624e-04  -2.5928839431440018e-04  -2.5892205916535748e-04  -2.5831212842360873e-04  -2.5745954384909204e-04  -2.5636562390569500e-04  -2.5503206376122957e-04  -2.5346093528735099e-04  -2.5165468705948431e-04  -2.4961614435663779e-04  -2.4734850916112520e-04  -2.4485536015807723e-04  -2.4214065273460563e-04  -2.3920871897842368e-04  -2.3606426767546837e-04  -2.3271238430590195e-04  -2.2915853103734930e-04  -2.2540854671343445e-04  -2.2146864683442172e-04  -2.1734542352439305e-04  -2.1304584547556530e-04  -2.0857725785361635e-04  -2.0394738213632034e-04  -1.9916431583793303e-04  -1.9423653203765054e-04  -1.8917287857255882e-04  -1.8398257665817557e-04  -1.7867521853872913e-04  -1.7326076350785615e-04  -1.6774953122349810e-04  -1.6215219058702057e-04  -1.5647974143910518e-04  -1.5074348472636053e-04  -1.4495497418558659e-04  -1.3912593804598917e-04  -1.3326815064277657e-04  -1.2739321638071904e-04  -1.2151219178590962e-04  -1.1563489407416999e-04  -1.0976858567140918e-04  -1.0391541039779004e-04  -9.8067370314239283e-05  -9.2196602460411280e-05  -8.6237031535019788e-05  -8.0050909474107943e-05  -7.3369957775909738e-05  -6.5694409164774285e-05  -5.6117665509509316e-05  -4.2990383393906337e-05  -2.3450416263601565e-05  -2.0776450541858997e-19  -1.3639998274671941e-19  -1.2461615528003077e-05  -2.7124656581898734e-05  -3.8546883839070785e-05  -4.7398920507988636e-05  -5.4716053810364289e-05  -6.1208105606763054e-05  -6.7292361948786256e-05  -7.3196964108888951e-05  -7.9038604927736156e-05  -8.4871929880916727e-05  -9.0718493357246449e-05  -9.6582773366149689e-05  -1.0246064169042743e-04  -1.0834370440871388e-04  -1.1422149141644828e-04  -1.2008256523734676e-04  -1.2591509713733438e-04  -1.3170717982040030e-04  -1.3744700596000060e-04  -1.4312297470664542e-04  -1.4872375706860222e-04  -1.5423833653955817e-04  -1.5965603433714507e-04  -1.6496652495852262e-04  -1.7015984565958917e-04  -1.7522640216227942e-04  -1.8015697205341473e-04  -1.8494270679095305e-04  -1.8957513288074638e-04  -1.9404615256421809e-04  -1.9834804421966427e-04  -2.0247346259657893e-04  -2.0641543895272082e-04  -2.1016738113449219e-04  -2.1372307362421276e-04  -2.1707667756797657e-04  -2.2022273079209698e-04  -2.2315614781283401e-04  -2.2587221984213303e-04  -2.2836661479103931e-04  -2.3063537727170138e-04  -2.3267492859855641e-04  -2.3448206678903765e-04  -2.3605396656398435e-04  -2.3738817934788466e-04  -2.3848263326902954e-04  -2.3933563315957826e-04  -2.3994586055562579e-04  -2.4031237369722235e-04  -2.4043460752839547e-04  -2.4031237369715437e-04  -2.3994586055548820e-04  -2.3933563315937324e-04  -2.3848263326875643e-04  -2.3738817934754560e-04  -2.3605396656357867e-04  -2.3448206678856816e-04  -2.3267492859802537e-04  -2.3063537727111087e-04  -2.2836661479039381e-04  -2.2587221984143746e-04  -2.2315614781209220e-04  -2.2022273079131590e-04  -2.1707667756715732e-04  -2.1372307362336299e-04  -2.1016738113362047e-04  -2.0641543895183400e-04  -2.0247346259568536e-04  -1.9834804421876704e-04  -1.9404615256332270e-04  -1.8957513287986218e-04  -1.8494270679008539e-04  -1.8015697205257073e-04  -1.7522640216146093e-04  -1.7015984565880074e-04  -1.6496652495777143e-04  -1.5965603433643508e-04  -1.5423833653889190e-04  -1.4872375706798138e-04  -1.4312297470607050e-04  -1.3744700595947335e-04  -1.3170717981992079e-04  -1.2591509713690203e-04  -1.2008256523695863e-04  -1.1422149141610348e-04  -1.0834370440841172e-04  -1.0246064169016592e-04  -9.6582773365925856e-05  -9.0718493357056564e-05  -8.4871929880758529e-05  -7.9038604927607326e-05  -7.3196964108787252e-05  -6.7292361948708004e-05  -6.1208105606705510e-05  -5.4716053810324126e-05  -4.7398920507963787e-05  -3.8546883839056921e-05  -2.7124656581892608e-05  -1.2461615528001561e-05  -1.0429776152529298e-19  -5.7411691350042765e-20  -5.7614530879908325e-06  -1.5273210195617152e-05  -2.4211134421518115e-05  -3.1866901184623490e-05  -3.8581327527184318e-05  -4.4759984346798444e-05  -5.0678610388605239e-05  -5.6494844903043476e-05  -6.2289104280646034e-05  -6.8097107713437421e-05  -7.3930439468416036e-05  -7.9788252484269971e-05  -8.5663514520276790e-05  -9.1546205634140298e-05  -9.7424919926059625e-05  -1.0328766847824300e-04  -1.0912229217322888e-04  -1.1491668402508848e-04  -1.2065891574974098e-04  -1.2633731341315458e-04  -1.3194050409194469e-04  -1.3745744503502691e-04  -1.4287744187572950e-04  -1.4819015990445914e-04  -1.5338563095872320e-04  -1.5845425757916428e-04  -1.6338681548669755e-04  -1.6817445504479142e-04  -1.7280870211675072e-04  -1.7728145856628073e-04  -1.8158500254932702e-04  -1.8571198868431654e-04  -1.8965544815166966e-04  -1.9340878875212492e-04  -1.9696579494102971e-04  -2.0032062784854359e-04  -2.0346782529156993e-04  -2.0640230178080806e-04  -2.0911934852492760e-04  -2.1161463343303765e-04  -2.1388420111614404e-04  -2.1592447288801067e-04  -2.1773224676567503e-04  -2.1930469746974019e-04  -2.2063937642455964e-04  -2.2173421175833910e-04  -2.2258750830319159e-04  -2.2319794759518614e-04  -2.2356458787435671e-04  -2.2368686408472119e-04  -2.2356458787428765e-04  -2.2319794759504801e-04  -2.2258750830298713e-04  -2.2173421175806471e-04  -2.2063937642421888e-04  -2.1930469746933481e-04  -2.1773224676520454e-04  -2.1592447288747914e-04  -2.1388420111555248e-04  -2.1161463343239058e-04  -2.0911934852423111e-04  -2.0640230178006443e-04  -2.0346782529078570e-04  -2.0032062784772331e-04  -1.9696579494017907e-04  -1.9340878875125252e-04  -1.8965544815078138e-04  -1.8571198868342086e-04  -1.8158500254842835e-04  -1.7728145856538461e-04  -1.7280870211586384e-04  -1.6817445504392235e-04  -1.6338681548585141e-04  -1.5845425757834441e-04  -1.5338563095793398e-04  -1.4819015990370687e-04  -1.4287744187501872e-04  -1.3745744503435980e-04  -1.3194050409132233e-04  -1.2633731341257917e-04  -1.2065891574921376e-04  -1.1491668402460830e-04  -1.0912229217279544e-04  -1.0328766847785424e-04  -9.7424919925714957e-05  -9.1546205633837724e-05  -8.5663514520014928e-05  -7.9788252484045758e-05  -7.3930439468226789e-05  -6.8097107713279697e-05  -6.2289104280517516e-05  -5.6494844902942245e-05  -5.0678610388527650e-05  -4.4759984346741273e-05  -3.8581327527144805e-05  -3.1866901184598845e-05  -2.4211134421504763e-05  -1.5273210195611534e-05  -5.7614530879898118e-06  -4.1342686138348356e-20  -4.3049875091901860e-21  -1.2744761445361025e-06  -6.4835601611488651e-06  -1.2760926365801581e-05  -1.8959480910170779e-05  -2.4901392862483089e-05  -3.0673030116394990e-05  -3.6376973622576298e-05  -4.2079247737045384e-05  -4.7812323691898218e-05  -5.3587048704162577e-05  -5.9402137493821895e-05  -6.5250027058182315e-05  -7.1120103724687270e-05  -7.7000374764720628e-05  -8.2878307302886400e-05  -8.8741247483710659e-05  -9.4576634878214762e-05  -1.0037211746892308e-04  -1.0611561701142630e-04  -1.1179536815665675e-04  -1.1739994266324682e-04  -1.2291826458982462e-04  -1.2833961981802342e-04  -1.3365366196453062e-04  -1.3885041600247689e-04  -1.4392028044890102e-04  -1.4885402866948616e-04  -1.5364280964891240e-04  -1.5827814844238090e-04  -1.6275194643913831e-04  -1.6705648151602509e-04  -1.7118440812699287e-04  -1.7512875735540057e-04  -1.7888293694465530e-04  -1.8244073131622331e-04  -1.8579630158024204e-04  -1.8894418554178086e-04  -1.9187929770455377e-04  -1.9459692927310335e-04  -1.9709274815410353e-04  -1.9936279895712512e-04  -2.0140350299508448e-04  -2.0321165828451890e-04  -2.0478443954573727e-04  -2.0611939820292069e-04  -2.0721446238417064e-04  -2.0806793692154229e-04  -2.0867850335106960e-04  -2.0904521991276556e-04  -2.0916752155064020e-04  -2.0904521991269687e-04  -2.0867850335093112e-04  -2.0806793692133740e-04  -2.0721446238389690e-04  -2.0611939820257987e-04  -2.0478443954533135e-04  -2.0321165828404838e-04  -2.0140350299455219e-04  -1.9936279895653295e-04  -1.9709274815345683e-04  -1.9459692927240670e-04  -1.9187929770380960e-04  -1.8894418554099560e-04  -1.8579630157941992e-04  -1.8244073131537202e-04  -1.7888293694378170e-04  -1.7512875735451142e-04  -1.7118440812609637e-04  -1.6705648151512560e-04  -1.6275194643824073e-04  -1.5827814844149361e-04  -1.5364280964804243e-04  -1.4885402866863904e-04  -1.4392028044808009e-04  -1.3885041600168702e-04  -1.3365366196377740e-04  -1.2833961981731156e-04  -1.2291826458915675e-04  -1.1739994266262366e-04  -1.1179536815608114e-04  -1.0611561701089853e-04  -1.0037211746844236e-04  -9.4576634877780377e-05  -8.8741247483321389e-05  -8.2878307302541447e-05  -7.7000374764418149e-05  -7.1120103724425055e-05  -6.5250027057958102e-05  -5.9402137493632343e-05  -5.3587048704004731e-05  -4.7812323691769795e-05  -4.2079247736944018e-05  -3.6376973622498832e-05  -3.0673030116338198e-05  -2.4901392862443793e-05  -1.8959480910146303e-05  -1.2760926365788411e-05  -6.4835601611435262e-06  -1.2744761445353277e-06  -3.3820407013536369e-21  3.1570592080179212e-20  1.8910022592715507e-06  5.7759135457913398e-08  -3.7632034433044416e-06  -8.4705454322649664e-06  -1.3577496422361662e-05  -1.8898330830919369e-05  -2.4362246777522358e-05  -2.9936609832476722e-05  -3.5600649949685758e-05  -4.1337330425706769e-05  -4.7130965704593445e-05  -5.2966537403331526e-05  -5.8829495168789220e-05  -6.4705695890083321e-05  -7.0581383875705482e-05  -7.6443183989405647e-05  -8.2278099186339860e-05  -8.8073509619827710e-05  -9.3817172320157953e-05  -9.9497221081069982e-05  -1.0510216642042292e-04  -1.1062089556680682e-04  -1.1604267245505453e-04  -1.2135713772474118e-04  -1.2655430871969154e-04  -1.3162457948781374e-04  -1.3655872078104794e-04  -1.4134788005534395e-04  -1.4598358147065559e-04  -1.5045772589093937e-04  -1.5476259088415488e-04  -1.5889083072226308e-04  -1.6283547638122782e-04  -1.6658993554101231e-04  -1.7014799258558287e-04  -1.7350380860290811e-04  -1.7665192138495835e-04  -1.7958724542770538e-04  -1.8230507193112505e-04  -1.8480106879919297e-04  -1.8707128063988915e-04  -1.8911212876519034e-04  -1.9092041119108297e-04  -1.9249330263754899e-04  -1.9382835452857637e-04  -1.9492349499215309e-04  -1.9577702886027008e-04  -1.9638763766892140e-04  -1.9675437965809968e-04  -1.9687668977180328e-04  -1.9675437965803124e-04  -1.9638763766878357e-04  -1.9577702886006544e-04  -1.9492349499187884e-04  -1.9382835452823438e-04  -1.9249330263714247e-04  -1.9092041119061199e-04  -1.8911212876465734e-04  -1.8707128063929579e-04  -1.8480106879854613e-04  -1.8230507193042820e-04  -1.7958724542696089e-04  -1.7665192138417198e-04  -1.7350380860208569e-04  -1.7014799258473174e-04  -1.6658993554013817e-04  -1.6283547638033834e-04  -1.5889083072136585e-04  -1.5476259088325462e-04  -1.5045772589004219e-04  -1.4598358146976860e-04  -1.4134788005447355e-04  -1.3655872078020012e-04  -1.3162457948699205e-04  -1.2655430871890100e-04  -1.2135713772398782e-04  -1.1604267245434198e-04  -1.1062089556613822e-04  -1.0510216641979911e-04  -9.9497221080493742e-05  -9.3817172319629933e-05  -8.8073509619346447e-05  -8.2278099185904635e-05  -7.6443183989015822e-05  -7.0581383875360136e-05  -6.4705695889780355e-05  -5.8829495168526755e-05  -5.2966537403106703e-05  -4.7130965704403703e-05  -4.1337330425548767e-05  -3.5600649949557314e-05  -2.9936609832375254e-05  -2.4362246777444835e-05  -1.8898330830862547e-05  -1.3577496422322419e-05  -8.4705454322403838e-06  -3.7632034432911876e-06  5.7759135463254648e-08  1.8910022592722921e-06  2.3447468384068518e-20  5.7901128265773540e-20  4.1618065984932748e-06  4.9305036465621380e-06  3.1808906943588966e-06  -1.7928593917095091e-07  -4.4966983813710644e-06  -9.3792000889878363e-06  -1.4605669457526461e-05  -2.0051872494604134e-05  -2.5645835847995268e-05  -3.1343218143786171e-05  -3.7114101907376686e-05  -4.2936065144903290e-05  -4.8790637923661200e-05  -5.4661532747105915e-05  -6.0533773278255838e-05  -6.6393263889893050e-05  -7.2226571205315628e-05  -7.8020807648795568e-05  -8.3763565559911448e-05  -8.9442877886945283e-05  -9.5047193910908638e-05  -1.0056536403165981e-04  -1.0598663023766102e-04  -1.1130062019152004e-04  -1.1649734360780168e-04  -1.2156719006530315e-04  -1.2650092770222305e-04  -1.3128970244578593e-04  -1.3592503756069727e-04  -1.4039883338562374e-04  -1.4470336717964372e-04  -1.4883129303272950e-04  -1.5277564181344824e-04  -1.5652982113831929e-04  -1.6008761535380974e-04  -1.6344318552571967e-04  -1.6659106943291724e-04  -1.6952618156363820e-04  -1.7224381311328502e-04  -1.7473963198313931e-04  -1.7700968277958664e-04  -1.7905038681366946e-04  -1.8085854210081828e-04  -1.8243132336069064e-04  -1.8376628201708102e-04  -1.8486134619786438e-04  -1.8571482073496628e-04  -1.8632538716434137e-04  -1.8669210372596127e-04  -1.8681440536381320e-04  -1.8669210372589286e-04  -1.8632538716420376e-04  -1.8571482073476110e-04  -1.8486134619759070e-04  -1.8376628201673898e-04  -1.8243132336028407e-04  -1.8085854210034768e-04  -1.7905038681313671e-04  -1.7700968277899393e-04  -1.7473963198249198e-04  -1.7224381311258810e-04  -1.6952618156289328e-04  -1.6659106943213095e-04  -1.6344318552489730e-04  -1.6008761535295899e-04  -1.5652982113744656e-04  -1.5277564181255968e-04  -1.4883129303183243e-04  -1.4470336717874332e-04  -1.4039883338472681e-04  -1.3592503755981023e-04  -1.3128970244491559e-04  -1.2650092770137491e-04  -1.2156719006448132e-04  -1.1649734360701183e-04  -1.1130062019076694e-04  -1.0598663023694854e-04  -1.0056536403099058e-04  -9.5047193910285249e-05  -8.9442877886368880e-05  -8.3763565559382764e-05  -7.8020807648313749e-05  -7.2226571204879995e-05  -6.6393263889502887e-05  -6.0533773277909951e-05  -5.4661532746802386e-05  -4.8790637923398112e-05  -4.2936065144677932e-05  -3.7114101907186503e-05  -3.1343218143627885e-05  -2.5645835847866512e-05  -2.0051872494502236e-05  -1.4605669457448478e-05  -9.3792000889306785e-06  -4.4966983813315046e-06  -1.7928593914599147e-07  3.1808906943725368e-06  4.9305036465677691e-06  4.1618065984941549e-06  4.3803331919696234e-20  7.5090470499411744e-20  5.7780464002325454e-06  8.5264000257968884e-06  8.3841521447248088e-06  6.1062350007915023e-06  2.4457825375681550e-06  -2.0610806110574213e-06  -7.0789985525728316e-06  -1.2410072199125953e-05  -1.7939614336905798e-05  -2.3599922651417486e-05  -2.9348657670399498e-05  -3.5156821316597130e-05  -4.1002408809696556e-05  -4.6867176195577304e-05  -5.2735026037180810e-05  -5.8591199890887278e-05  -6.4421863825806674e-05  -7.0213885500278449e-05  -7.5954707384979150e-05  -8.1632271044119055e-05  -8.7234970451088099e-05  -9.2751622818904069e-05  -9.8171450385478796e-05  -1.0348406914008004e-04  -1.0867948193302434e-04  -1.1374807431954684e-04  -1.1868061208263148e-04  -1.2346823977071658e-04  -1.2810247984040645e-04  -1.3257523215590879e-04  -1.3687877369719960e-04  -1.4100575838977400e-04  -1.4494921700513799e-04  -1.4870255710247902e-04  -1.5225956299438440e-04  -1.5561439572663036e-04  -1.5876159306625509e-04  -1.6169606949450319e-04  -1.6441311620265397e-04  -1.6690840108955304e-04  -1.6917796876014994e-04  -1.7121824052464073e-04  -1.7302601439795506e-04  -1.7459846509945806e-04  -1.7593314405276876e-04  -1.7702797938566072e-04  -1.7788127592999965e-04  -1.7849171522170521e-04  -1.7885835550073031e-04  -1.7898063171105158e-04  -1.7885835550066181e-04  -1.7849171522156781e-04  -1.7788127592979357e-04  -1.7702797938538685e-04  -1.7593314405242729e-04  -1.7459846509905076e-04  -1.7302601439748500e-04  -1.7121824052410782e-04  -1.6917796875955807e-04  -1.6690840108890632e-04  -1.6441311620195726e-04  -1.6169606949375877e-04  -1.5876159306546910e-04  -1.5561439572580891e-04  -1.5225956299353498e-04  -1.4870255710160743e-04  -1.4494921700424965e-04  -1.4100575838887677e-04  -1.3687877369629965e-04  -1.3257523215501292e-04  -1.2810247983952033e-04  -1.2346823976984680e-04  -1.1868061208178380e-04  -1.1374807431872577e-04  -1.0867948193223517e-04  -1.0348406913932759e-04  -9.8171450384766475e-05  -9.2751622818235021e-05  -8.7234970450464331e-05  -8.1632271043542638e-05  -7.5954707384450601e-05  -7.0213885499796752e-05  -6.4421863825370309e-05  -5.8591199890496552e-05  -5.2735026036834461e-05  -4.6867176195273538e-05  -4.1002408809433223e-05  -3.5156821316371264e-05  -2.9348657670208682e-05  -2.35999