<?xml version="1.0"?>
<VTKFile type="UnstructuredGrid"  version="0.1"  >
<UnstructuredGrid>
<Piece  NumberOfPoints="2111" NumberOfCells="4000">
<Points>
<DataArray  type="Float64"  NumberOfComponents="3"  format="ascii">0 0 0  0.05 0 0  0.1 0 0  0.15 0 0  0.2 0 0  0.25 0 0  0.3 0 0  0.35 0 0  0.4 0 0  0.45 0 0  0.5 0 0  0.55 0 0  0.6 0 0  0.65 0 0  0.7 0 0  0.75 0 0  0.8 0 0  0.85 0 0  0.9 0 0  0.95 0 0  1 0 0  1.05 0 0  1.1 0 0  1.15 0 0  1.2 0 0  1.25 0 0  1.3 0 0  1.35 0 0  1.4 0 0  1.45 0 0  1.5 0 0  1.55 0 0  1.6 0 0  1.65 0 0  1.7 0 0  1.75 0 0  1.8 0 0  1.85 0 0  1.9 0 0  1.95 0 0  2 0 0  2.05 0 0  2.1 0 0  2.15 0 0  2.2 0 0  2.25 0 0  2.3 0 0  2.35 0 0  2.4 0 0  2.45 0 0  2.5 0 0  2.55 0 0  2.6 0 0  2.65 0 0  2.7 0 0  2.75 0 0  2.8 0 0  2.85 0 0  2.9 0 0  2.95 0 0  3 0 0  3.05 0 0  3.1 0 0  3.15 0 0  3.2 0 0  3.25 0 0  3.3 0 0  3.35 0 0  3.4 0 0  3.45 0 0  3.5 0 0  3.55 0 0  3.6 0 0  3.65 0 0  3.7 0 0  3.75 0 0  3.8 0 0  3.85 0 0  3.9 0 0  3.95 0 0  4 0 0  4.05 0 0  4.1 0 0  4.15 0 0  4.2 0 0  4.25 0 0  4.3 0 0  4.35 0 0  4.4 0 0  4.45 0 0  4.5 0 0  4.55 0 0  4.6 0 0  4.65 0 0  4.7 0 0  4.75 0 0  4.8 0 0  4.85 0 0  4.9 0 0  4.95 0 0  5 0 0  0 0.03 0  0.05 0.03 0  0.1 0.03 0  0.15 0.03 0  0.2 0.03 0  0.25 0.03 0  0.3 0.03 0  0.35 0.03 0  0.4 0.03 0  0.45 0.03 0  0.5 0.03 0  0.55 0.03 0  0.6 0.03 0  0.65 0.03 0  0.7 0.03 0  0.75 0.03 0  0.8 0.03 0  0.85 0.03 0  0.9 0.03 0  0.95 0.03 0  1 0.03 0  1.05 0.03 0  1.1 0.03 0  1.15 0.03 0  1.2 0.03 0  1.25 0.03 0  1.3 0.03 0  1.35 0.03 0  1.4 0.03 0  1.45 0.03 0  1.5 0.03 0  1.55 0.03 0  1.6 0.03 0  1.65 0.03 0  1.7 0.03 0  1.75 0.03 0  1.8 0.03 0  1.85 0.03 0  1.9 0.03 0  1.95 0.03 0  2 0.03 0  2.05 0.03 0  2.1 0.03 0  2.15 0.03 0  2.2 0.03 0  2.25 0.03 0  2.3 0.03 0  2.35 0.03 0  2.4 0.03 0  2.45 0.03 0  2.5 0.03 0  2.55 0.03 0  2.6 0.03 0  2.65 0.03 0  2.7 0.03 0  2.75 0.03 0  2.8 0.03 0  2.85 0.03 0  2.9 0.03 0  2.95 0.03 0  3 0.03 0  3.05 0.03 0  3.1 0.03 0  3.15 0.03 0  3.2 0.03 0  3.25 0.03 0  3.3 0.03 0  3.35 0.03 0  3.4 0.03 0  3.45 0.03 0  3.5 0.03 0  3.55 0.03 0  3.6 0.03 0  3.65 0.03 0  3.7 0.03 0  3.75 0.03 0  3.8 0.03 0  3.85 0.03 0  3.9 0.03 0  3.95 0.03 0  4 0.03 0  4.05 0.03 0  4.1 0.03 0  4.15 0.03 0  4.2 0.03 0  4.25 0.03 0  4.3 0.03 0  4.35 0.03 0  4.4 0.03 0  4.45 0.03 0  4.5 0.03 0  4.55 0.03 0  4.6 0.03 0  4.65 0.03 0  4.7 0.03 0  4.75 0.03 0  4.8 0.03 0  4.85 0.03 0  4.9 0.03 0  4.95 0.03 0  5 0.03 0  0 0.06 0  0.05 0.06 0  0.1 0.06 0  0.15 0.06 0  0.2 0.06 0  0.25 0.06 0  0.3 0.06 0  0.35 0.06 0  0.4 0.06 0  0.45 0.06 0  0.5 0.06 0  0.55 0.06 0  0.6 0.06 0  0.65 0.06 0  0.7 0.06 0  0.75 0.06 0  0.8 0.06 0  0.85 0.06 0  0.9 0.06 0  0.95 0.06 0  1 0.06 0  1.05 0.06 0  1.1 0.06 0  1.15 0.06 0  1.2 0.06 0  1.25 0.06 0  1.3 0.06 0  1.35 0.06 0  1.4 0.06 0  1.45 0.06 0  1.5 0.06 0  1.55 0.06 0  1.6 0.06 0  1.65 0.06 0  1.7 0.06 0  1.75 0.06 0  1.8 0.06 0  1.85 0.06 0  1.9 0.06 0  1.95 0.06 0  2 0.06 0  2.05 0.06 0  2.1 0.06 0  2.15 0.06 0  2.2 0.06 0  2.25 0.06 0  2.3 0.06 0  2.35 0.06 0  2.4 0.06 0  2.45 0.06 0  2.5 0.06 0  2.55 0.06 0  2.6 0.06 0  2.65 0.06 0  2.7 0.06 0  2.75 0.06 0  2.8 0.06 0  2.85 0.06 0  2.9 0.06 0  2.95 0.06 0  3 0.06 0  3.05 0.06 0  3.1 0.06 0  3.15 0.06 0  3.2 0.06 0  3.25 0.06 0  3.3 0.06 0  3.35 0.06 0  3.4 0.06 0  3.45 0.06 0  3.5 0.06 0  3.55 0.06 0  3.6 0.06 0  3.65 0.06 0  3.7 0.06 0  3.75 0.06 0  3.8 0.06 0  3.85 0.06 0  3.9 0.06 0  3.95 0.06 0  4 0.06 0  4.05 0.06 0  4.1 0.06 0  4.15 0.06 0  4.2 0.06 0  4.25 0.06 0  4.3 0.06 0  4.35 0.06 0  4.4 0.06 0  4.45 0.06 0  4.5 0.06 0  4.55 0.06 0  4.6 0.06 0  4.65 0.06 0  4.7 0.06 0  4.75 0.06 0  4.8 0.06 0  4.85 0.06 0  4.9 0.06 0  4.95 0.06 0  5 0.06 0  0 0.09 0  0.05 0.09 0  0.1 0.09 0  0.15 0.09 0  0.2 0.09 0  0.25 0.09 0  0.3 0.09 0  0.35 0.09 0  0.4 0.09 0  0.45 0.09 0  0.5 0.09 0  0.55 0.09 0  0.6 0.09 0  0.65 0.09 0  0.7 0.09 0  0.75 0.09 0  0.8 0.09 0  0.85 0.09 0  0.9 0.09 0  0.95 0.09 0  1 0.09 0  1.05 0.09 0  1.1 0.09 0  1.15 0.09 0  1.2 0.09 0  1.25 0.09 0  1.3 0.09 0  1.35 0.09 0  1.4 0.09 0  1.45 0.09 0  1.5 0.09 0  1.55 0.09 0  1.6 0.09 0  1.65 0.09 0  1.7 0.09 0  1.75 0.09 0  1.8 0.09 0  1.85 0.09 0  1.9 0.09 0  1.95 0.09 0  2 0.09 0  2.05 0.09 0  2.1 0.09 0  2.15 0.09 0  2.2 0.09 0  2.25 0.09 0  2.3 0.09 0  2.35 0.09 0  2.4 0.09 0  2.45 0.09 0  2.5 0.09 0  2.55 0.09 0  2.6 0.09 0  2.65 0.09 0  2.7 0.09 0  2.75 0.09 0  2.8 0.09 0  2.85 0.09 0  2.9 0.09 0  2.95 0.09 0  3 0.09 0  3.05 0.09 0  3.1 0.09 0  3.15 0.09 0  3.2 0.09 0  3.25 0.09 0  3.3 0.09 0  3.35 0.09 0  3.4 0.09 0  3.45 0.09 0  3.5 0.09 0  3.55 0.09 0  3.6 0.09 0  3.65 0.09 0  3.7 0.09 0  3.75 0.09 0  3.8 0.09 0  3.85 0.09 0  3.9 0.09 0  3.95 0.09 0  4 0.09 0  4.05 0.09 0  4.1 0.09 0  4.15 0.09 0  4.2 0.09 0  4.25 0.09 0  4.3 0.09 0  4.35 0.09 0  4.4 0.09 0  4.45 0.09 0  4.5 0.09 0  4.55 0.09 0  4.6 0.09 0  4.65 0.09 0  4.7 0.09 0  4.75 0.09 0  4.8 0.09 0  4.85 0.09 0  4.9 0.09 0  4.95 0.09 0  5 0.09 0  0 0.12 0  0.05 0.12 0  0.1 0.12 0  0.15 0.12 0  0.2 0.12 0  0.25 0.12 0  0.3 0.12 0  0.35 0.12 0  0.4 0.12 0  0.45 0.12 0  0.5 0.12 0  0.55 0.12 0  0.6 0.12 0  0.65 0.12 0  0.7 0.12 0  0.75 0.12 0  0.8 0.12 0  0.85 0.12 0  0.9 0.12 0  0.95 0.12 0  1 0.12 0  1.05 0.12 0  1.1 0.12 0  1.15 0.12 0  1.2 0.12 0  1.25 0.12 0  1.3 0.12 0  1.35 0.12 0  1.4 0.12 0  1.45 0.12 0  1.5 0.12 0  1.55 0.12 0  1.6 0.12 0  1.65 0.12 0  1.7 0.12 0  1.75 0.12 0  1.8 0.12 0  1.85 0.12 0  1.9 0.12 0  1.95 0.12 0  2 0.12 0  2.05 0.12 0  2.1 0.12 0  2.15 0.12 0  2.2 0.12 0  2.25 0.12 0  2.3 0.12 0  2.35 0.12 0  2.4 0.12 0  2.45 0.12 0  2.5 0.12 0  2.55 0.12 0  2.6 0.12 0  2.65 0.12 0  2.7 0.12 0  2.75 0.12 0  2.8 0.12 0  2.85 0.12 0  2.9 0.12 0  2.95 0.12 0  3 0.12 0  3.05 0.12 0  3.1 0.12 0  3.15 0.12 0  3.2 0.12 0  3.25 0.12 0  3.3 0.12 0  3.35 0.12 0  3.4 0.12 0  3.45 0.12 0  3.5 0.12 0  3.55 0.12 0  3.6 0.12 0  3.65 0.12 0  3.7 0.12 0  3.75 0.12 0  3.8 0.12 0  3.85 0.12 0  3.9 0.12 0  3.95 0.12 0  4 0.12 0  4.05 0.12 0  4.1 0.12 0  4.15 0.12 0  4.2 0.12 0  4.25 0.12 0  4.3 0.12 0  4.35 0.12 0  4.4 0.12 0  4.45 0.12 0  4.5 0.12 0  4.55 0.12 0  4.6 0.12 0  4.65 0.12 0  4.7 0.12 0  4.75 0.12 0  4.8 0.12 0  4.85 0.12 0  4.9 0.12 0  4.95 0.12 0  5 0.12 0  0 0.15 0  0.05 0.15 0  0.1 0.15 0  0.15 0.15 0  0.2 0.15 0  0.25 0.15 0  0.3 0.15 0  0.35 0.15 0  0.4 0.15 0  0.45 0.15 0  0.5 0.15 0  0.55 0.15 0  0.6 0.15 0  0.65 0.15 0  0.7 0.15 0  0.75 0.15 0  0.8 0.15 0  0.85 0.15 0  0.9 0.15 0  0.95 0.15 0  1 0.15 0  1.05 0.15 0  1.1 0.15 0  1.15 0.15 0  1.2 0.15 0  1.25 0.15 0  1.3 0.15 0  1.35 0.15 0  1.4 0.15 0  1.45 0.15 0  1.5 0.15 0  1.55 0.15 0  1.6 0.15 0  1.65 0.15 0  1.7 0.15 0  1.75 0.15 0  1.8 0.15 0  1.85 0.15 0  1.9 0.15 0  1.95 0.15 0  2 0.15 0  2.05 0.15 0  2.1 0.15 0  2.15 0.15 0  2.2 0.15 0  2.25 0.15 0  2.3 0.15 0  2.35 0.15 0  2.4 0.15 0  2.45 0.15 0  2.5 0.15 0  2.55 0.15 0  2.6 0.15 0  2.65 0.15 0  2.7 0.15 0  2.75 0.15 0  2.8 0.15 0  2.85 0.15 0  2.9 0.15 0  2.95 0.15 0  3 0.15 0  3.05 0.15 0  3.1 0.15 0  3.15 0.15 0  3.2 0.15 0  3.25 0.15 0  3.3 0.15 0  3.35 0.15 0  3.4 0.15 0  3.45 0.15 0  3.5 0.15 0  3.55 0.15 0  3.6 0.15 0  3.65 0.15 0  3.7 0.15 0  3.75 0.15 0  3.8 0.15 0  3.85 0.15 0  3.9 0.15 0  3.95 0.15 0  4 0.15 0  4.05 0.15 0  4.1 0.15 0  4.15 0.15 0  4.2 0.15 0  4.25 0.15 0  4.3 0.15 0  4.35 0.15 0  4.4 0.15 0  4.45 0.15 0  4.5 0.15 0  4.55 0.15 0  4.6 0.15 0  4.65 0.15 0  4.7 0.15 0  4.75 0.15 0  4.8 0.15 0  4.85 0.15 0  4.9 0.15 0  4.95 0.15 0  5 0.15 0  0 0.18 0  0.05 0.18 0  0.1 0.18 0  0.15 0.18 0  0.2 0.18 0  0.25 0.18 0  0.3 0.18 0  0.35 0.18 0  0.4 0.18 0  0.45 0.18 0  0.5 0.18 0  0.55 0.18 0  0.6 0.18 0  0.65 0.18 0  0.7 0.18 0  0.75 0.18 0  0.8 0.18 0  0.85 0.18 0  0.9 0.18 0  0.95 0.18 0  1 0.18 0  1.05 0.18 0  1.1 0.18 0  1.15 0.18 0  1.2 0.18 0  1.25 0.18 0  1.3 0.18 0  1.35 0.18 0  1.4 0.18 0  1.45 0.18 0  1.5 0.18 0  1.55 0.18 0  1.6 0.18 0  1.65 0.18 0  1.7 0.18 0  1.75 0.18 0  1.8 0.18 0  1.85 0.18 0  1.9 0.18 0  1.95 0.18 0  2 0.18 0  2.05 0.18 0  2.1 0.18 0  2.15 0.18 0  2.2 0.18 0  2.25 0.18 0  2.3 0.18 0  2.35 0.18 0  2.4 0.18 0  2.45 0.18 0  2.5 0.18 0  2.55 0.18 0  2.6 0.18 0  2.65 0.18 0  2.7 0.18 0  2.75 0.18 0  2.8 0.18 0  2.85 0.18 0  2.9 0.18 0  2.95 0.18 0  3 0.18 0  3.05 0.18 0  3.1 0.18 0  3.15 0.18 0  3.2 0.18 0  3.25 0.18 0  3.3 0.18 0  3.35 0.18 0  3.4 0.18 0  3.45 0.18 0  3.5 0.18 0  3.55 0.18 0  3.6 0.18 0  3.65 0.18 0  3.7 0.18 0  3.75 0.18 0  3.8 0.18 0  3.85 0.18 0  3.9 0.18 0  3.95 0.18 0  4 0.18 0  4.05 0.18 0  4.1 0.18 0  4.15 0.18 0  4.2 0.18 0  4.25 0.18 0  4.3 0.18 0  4.35 0.18 0  4.4 0.18 0  4.45 0.18 0  4.5 0.18 0  4.55 0.18 0  4.6 0.18 0  4.65 0.18 0  4.7 0.18 0  4.75 0.18 0  4.8 0.18 0  4.85 0.18 0  4.9 0.18 0  4.95 0.18 0  5 0.18 0  0 0.21 0  0.05 0.21 0  0.1 0.21 0  0.15 0.21 0  0.2 0.21 0  0.25 0.21 0  0.3 0.21 0  0.35 0.21 0  0.4 0.21 0  0.45 0.21 0  0.5 0.21 0  0.55 0.21 0  0.6 0.21 0  0.65 0.21 0  0.7 0.21 0  0.75 0.21 0  0.8 0.21 0  0.85 0.21 0  0.9 0.21 0  0.95 0.21 0  1 0.21 0  1.05 0.21 0  1.1 0.21 0  1.15 0.21 0  1.2 0.21 0  1.25 0.21 0  1.3 0.21 0  1.35 0.21 0  1.4 0.21 0  1.45 0.21 0  1.5 0.21 0  1.55 0.21 0  1.6 0.21 0  1.65 0.21 0  1.7 0.21 0  1.75 0.21 0  1.8 0.21 0  1.85 0.21 0  1.9 0.21 0  1.95 0.21 0  2 0.21 0  2.05 0.21 0  2.1 0.21 0  2.15 0.21 0  2.2 0.21 0  2.25 0.21 0  2.3 0.21 0  2.35 0.21 0  2.4 0.21 0  2.45 0.21 0  2.5 0.21 0  2.55 0.21 0  2.6 0.21 0  2.65 0.21 0  2.7 0.21 0  2.75 0.21 0  2.8 0.21 0  2.85 0.21 0  2.9 0.21 0  2.95 0.21 0  3 0.21 0  3.05 0.21 0  3.1 0.21 0  3.15 0.21 0  3.2 0.21 0  3.25 0.21 0  3.3 0.21 0  3.35 0.21 0  3.4 0.21 0  3.45 0.21 0  3.5 0.21 0  3.55 0.21 0  3.6 0.21 0  3.65 0.21 0  3.7 0.21 0  3.75 0.21 0  3.8 0.21 0  3.85 0.21 0  3.9 0.21 0  3.95 0.21 0  4 0.21 0  4.05 0.21 0  4.1 0.21 0  4.15 0.21 0  4.2 0.21 0  4.25 0.21 0  4.3 0.21 0  4.35 0.21 0  4.4 0.21 0  4.45 0.21 0  4.5 0.21 0  4.55 0.21 0  4.6 0.21 0  4.65 0.21 0  4.7 0.21 0  4.75 0.21 0  4.8 0.21 0  4.85 0.21 0  4.9 0.21 0  4.95 0.21 0  5 0.21 0  0 0.24 0  0.05 0.24 0  0.1 0.24 0  0.15 0.24 0  0.2 0.24 0  0.25 0.24 0  0.3 0.24 0
[...]
<PointData  Scalars="Initial Temperature"> 
<DataArray  type="Float64"  Name="Initial Temperature"  format="ascii">1.0000000000000000e+01  0.0000000000000000e+00  0.0000000000000000e+00  0.0000000000000000e+00  0.0000000000000000e+00  0.0000000000000000e+00  0.0000000000000000e+00  0.0000000000000000e+00  0.0000000000000000e+00  0.0000000000000000e+00  0.0000000000000000e+00  0.0000000000000000e+00  0.0000000000000000e+00  0.0000000000000000e+00  0.0000000000000000e+00  0.0000000000000000e+00  0.0000000000000000e+00  0.0000000000000000e+00  0.0000000000000000e+00  0.0000000000000000e+00  0.0000000000000000e+00  0.0000000000000000e+00  0.0000000000000000e+00  0.0000000000000000e+00  0.0000000000000000e+00  0.0000000000000000e+00  0.0000000000000000e+00  0.0000000000000000e+00  0.0000000000000000e+00  0.0000000000000000e+00  0.0000000000000000e+00  0.0000000000000000e+00  0.0000000000000000e+00  0.0000000000000000e+00  0.0000000000000000e+00  0.0000000000000000e+00  0.0000000000000000e+00  0.0000000000000000e+00  0.0000000000000000e+00  0.0000000000000000e+00  0.0000000000000000e+00  0.0000000000000000e+00  0.0000000000000000e+00  0.0000000000000000e+00  0.0000000000000000e+00  0.0000000000000000e+00  0.0000000000000000e+00  0.0000000000000000e+00  0.0000000000000000e+00  0.0000000000000000e+00  0.0000000000000000e+00  0.0000000000000000e+00  0.0000000000000000e+00  0.0000000000000000e+00  0.0000000000000000e+00  0.0000000000000000e+00  0.0000000000000000e+00  0.0000000000000000e+00  0.0000000000000000e+00  0.0000000000000000e+00  0.0000000000000000e+00  0.0000000000000000e+00  0.0000000000000000e+00  0.0000000000000000e+00  0.0000000000000000e+00  0.0000000000000000e+00  0.0000000000000000e+00  0.0000000000000000e+00  0.0000000000000000e+00  0.0000000000000000e+00  0.0000000000000000e+00  0.0000000000000000e+00  0.0000000000000000e+00  0.0000000000000000e+00  0.0000000000000000e+00  0.0000000000000000e+00  0.0000000000000000e+00  0.0000000000000000e+00  0.0000000000000000e+00  0.0000000000000000e+00  0.0000000000000000e+00  0.0000000000000000e+00  0.0000000000000000e+00  0.0000000000000000e+00  0.0000000000000000e+00  0.0000000000000000e+00  0.0000000000000000e+00  0.0000000000000000e+00  0.0000000000000000e+00  0.0000000000000000e+00  0.0000000000000000e+00  0.0000000000000000e+00  0.0000000000000000e+00  0.0000000000000000e+00  0.0000000000000000e+00  0.0000000000000000e+00  0.0000000000000000e+00  0.0000000000000000e+00  0.0000000000000000e+00  0.0000000000000000e+00  1.0000000000000000e+01  1.0000000000000000e+01  3.8165358202231090e+00  1.5869654726139251e+00  8.7050766547362946e-01  5.0080640249913477e-01  2.9323775065743762e-01  1.7258393335086558e-01  1.0173747539307847e-01  6.0002995816511313e-02  3.5393991338822470e-02  2.0878811955848581e-02  1.2316519705864455e-02  7.2656094361754691e-03  4.2860441950537701e-03  2.5283745473459302e-03  1.4915101934458248e-03  8.7985490101552945e-04  5.1903410295666547e-04  3.0618275879068572e-04  1.8061988863847666e-04  1.0654925284062474e-04  6.2854336626701833e-05  3.7078323193923264e-05  2.1872827312621266e-05  1.2902972233859452e-05  7.6115762305707643e-06  4.4901354249229086e-06  2.6487701789570413e-06  1.5625327071950685e-06  9.2175171734253175e-07  5.4374940425667432e-07  3.2076253215657975e-07  1.8922062530097136e-07  1.1162290384586032e-07  6.5847329740834851e-08  3.8843919389191824e-08  2.2914373664513215e-08  1.3517399213862670e-08  7.9740484797880201e-09  4.7039887725347565e-09  2.7749712590902045e-09  1.6370597038006443e-09  9.6585124725118361e-10  5.6999363402626591e-10  3.3663332902083126e-10  1.9924253412457475e-10  1.1865303233991859e-10  7.1889870388432499e-11  4.5621517026036586e-11  3.2359227716065956e-11  2.8322107050136474e-11  3.2359227716065743e-11  4.5621517026036075e-11  7.1889870388431594e-11  1.1865303233991697e-10  1.9924253412457196e-10  3.3663332902082650e-10  5.6999363402625764e-10  9.6585124725116913e-10  1.6370597038006205e-09  2.7749712590901669e-09  4.7039887725346887e-09  7.9740484797879308e-09  1.3517399213862506e-08  2.2914373664512977e-08  3.8843919389191388e-08  6.5847329740833991e-08  1.1162290384585908e-07  1.8922062530096908e-07  3.2076253215657626e-07  5.4374940425666807e-07  9.2175171734251851e-07  1.5625327071950497e-06  2.6487701789570087e-06  4.4901354249228612e-06  7.6115762305706728e-06  1.2902972233859275e-05  2.1872827312621008e-05  3.7078323193922803e-05  6.2854336626701223e-05  1.0654925284062349e-04  1.8061988863847422e-04  3.0618275879068128e-04  5.1903410295666222e-04  8.7985490101552283e-04  1.4915101934458101e-03  2.5283745473458994e-03  4.2860441950537077e-03  7.2656094361754223e-03  1.2316519705864356e-02  2.0878811955848363e-02  3.5393991338822060e-02  6.0002995816510571e-02  1.0173747539307824e-01  1.7258393335086486e-01  2.9323775065743601e-01  5.0080640249913189e-01  8.7050766547362246e-01  1.5869654726139295e+00  3.8165358202231148e+00  1.0000000000000000e+01  1.0000000000000000e+01  5.5431091242905888e+00  2.9149514221827859e+00  1.6321894391084384e+00  9.4878487341940776e-01  5.5705842159041219e-01  3.2814834054824182e-01  1.9349342989732710e-01  1.1412840937115024e-01  6.7322640373766438e-02  3.9713729035113256e-02  2.3427389072484185e-02  1.3820006166554093e-02  8.1525397619504579e-03  4.8092540413986204e-03  2.8370209527120056e-03  1.6735834696150901e-03  9.8726153080371058e-04  5.8239421570858226e-04  3.4355944409883031e-04  2.0266872243634770e-04  1.1955605285164846e-04  7.0527161773609819e-05  4.1604589890907744e-05  2.4542911645170192e-05  1.4478078346722411e-05  8.5407451098411311e-06  5.0382602777307221e-06  2.9721138262043495e-06  1.7532759543697263e-06  1.0342728282998356e-06  6.1012659278169780e-07  3.5991901741986496e-07  2.1231938014078568e-07  1.2524906406131333e-07  7.3885525307069112e-08  4.3585728780914690e-08  2.5711621211414163e-08  1.5167541535911727e-08  8.9475183493968443e-09  5.2783089969790109e-09  3.1138725977276332e-09  1.8371582449400791e-09  1.0841923197748705e-09  6.4031464233478379e-10  3.7898182080467252e-10  2.2569147917011828e-10  1.3674265937706550e-10  8.6777282101764765e-11  6.1550908763286524e-11  5.3871848930482395e-11  6.1550908763286123e-11  8.6777282101763835e-11  1.3674265937706374e-10  2.2569147917011515e-10  3.7898182080466730e-10  6.4031464233477490e-10  1.0841923197748546e-09  1.8371582449400522e-09  3.1138725977275869e-09  5.2783089969789381e-09  8.9475183493967120e-09  1.5167541535911538e-08  2.5711621211413852e-08  4.3585728780914240e-08  7.3885525307068238e-08  1.2524906406131167e-07  2.1231938014078329e-07  3.5991901741986056e-07  6.1012659278169092e-07  1.0342728282998233e-06  1.7532759543697009e-06  2.9721138262043131e-06  5.0382602777306594e-06  8.5407451098410345e-06  1.4478078346722228e-05  2.4542911645169849e-05  4.1604589890907249e-05  7.0527161773608951e-05  1.1955605285164722e-04  2.0266872243634548e-04  3.4355944409882586e-04  5.8239421570857391e-04  9.8726153080370385e-04  1.6735834696150764e-03  2.8370209527119779e-03  4.8092540413985597e-03  8.1525397619503399e-03  1.3820006166554004e-02  2.3427389072483998e-02  3.9713729035112860e-02  6.7322640373765674e-02  1.1412840937114881e-01  1.9349342989732662e-01  3.2814834054824071e-01  5.5705842159040941e-01  9.4878487341940299e-01  1.6321894391084260e+00  2.9149514221827908e+00  5.5431091242905906e+00  1.0000000000000000e+01  1.0000000000000000e+01  6.3907452829028486e+00  3.7826701570684746e+00  2.2106548454858013e+00  1.2991136892063788e+00  7.6553458565358135e-01  4.5144170317782584e-01  2.6628229170603240e-01  1.5707734240036278e-01  9.2660420906699709e-02  5.4661035193827728e-02  3.2244994659905497e-02  1.9021599428420140e-02  1.1221007041814765e-02  6.6193700815093456e-03  3.9048243056589078e-03  2.3034900225003597e-03  1.3588489204326294e-03  8.0159686884731648e-04  4.7286900742149961e-04  2.7894956539861406e-04  1.6455478962651104e-04  9.7072310367091980e-05  5.7263805334418243e-05  3.3780419864125643e-05  1.9927365279592453e-05  1.1755327156537655e-05  6.9345703568965913e-06  4.0907637359700638e-06  2.4131773251913340e-06  1.4235544217064803e-06  8.3976721150340688e-07  4.9538602841045150e-07  2.9223255619142381e-07  1.7239054732992761e-07  1.0169470121716524e-07  5.9990609084611069e-08  3.5389010581393585e-08  2.0876329948024484e-08  1.2315202489193898e-08  7.2649690741022415e-09  4.2858779461629220e-09  2.5286313933800754e-09  1.4922627072518316e-09  8.8131749712256243e-10  5.2162372634279708e-10  3.1063767153414726e-10  1.8821012412374080e-10  1.1943868219249579e-10  8.4717558010358258e-11  7.4148238890270261e-11  8.4717558010357741e-11  1.1943868219249447e-10  1.8821012412373842e-10  3.1063767153414297e-10  5.2162372634278985e-10  8.8131749712255023e-10  1.4922627072518101e-09  2.5286313933800395e-09  4.2858779461628566e-09  7.2649690741021398e-09  1.2315202489193707e-08  2.0876329948024213e-08  3.5389010581393141e-08  5.9990609084610434e-08  1.0169470121716403e-07  1.7239054732992518e-07  2.9223255619142031e-07  4.9538602841044536e-07  8.3976721150339735e-07  1.4235544217064619e-06  2.4131773251912971e-06  4.0907637359700113e-06  6.9345703568965040e-06  1.1755327156537529e-05  1.9927365279592195e-05  3.3780419864125149e-05  5.7263805334417531e-05  9.7072310367090747e-05  1.6455478962650925e-04  2.7894956539861087e-04  4.7286900742149365e-04  8.0159686884730531e-04  1.3588489204326194e-03  2.3034900225003398e-03  3.9048243056588666e-03  6.6193700815092606e-03  1.1221007041814607e-02  1.9021599428420015e-02  3.2244994659905261e-02  5.4661035193827187e-02  9.2660420906698723e-02  1.5707734240036095e-01  2.6628229170603168e-01  4.5144170317782450e-01  7.6553458565357801e-01  1.2991136892063728e+00  2.2106548454857871e+00  3.7826701570684786e+00  6.3907452829028495e+00  1.0000000000000000e+01  1.0000000000000000e+01  6.7933158822569224e+00  4.2581454581647495e+00  2.5630042415354470e+00  1.5208969441187936e+00  8.9879576707753750e-01  5.3049738523576040e-01  3.1299683977666870e-01  1.8464890122075783e-01  1.0892767379827331e-01  6.4257688280257047e-02  3.7906226496252492e-02  2.2361224390993837e-02  1.3191083680848386e-02  7.7815360060905208e-03  4.5903962397053572e-03  2.7079149209458739e-03  1.5974227097710961e-03  9.4233363535538208e-04  5.5589085761593516e-04  3.2792488134201494e-04  1.9344575707178142e-04  1.1411534487923078e-04  6.7317640531393435e-05  3.9711265224753868e-05  2.3426022856777657e-05  1.3819215876971839e-05  8.1520763735366919e-06  4.8089811892321204e-06  2.8368600858281266e-06  1.6734885898296185e-06  9.8720556456095277e-07  5.8236120338280702e-07  3.4353997353810052e-07  2.0265724271031806e-07  1.1954929122347829e-07  7.0523190591954444e-08  4.1602277025930845e-08  2.4541597730880947e-08  1.4477388804287460e-08  8.5404833602364065e-09  5.0383516997602374e-09  2.9725844830251502e-09  1.7542600237373327e-09  1.0360508547919127e-09  6.1320546718028199e-10  3.6517648426849004e-10  2.2125427058414131e-10  1.4040859189199322e-10  9.9591462417441355e-11  8.7166482606320125e-11  9.9591462417440722e-11  1.4040859189199172e-10  2.2125427058413852e-10  3.6517648426848513e-10  6.1320546718027352e-10  1.0360508547918980e-09  1.7542600237373083e-09  2.9725844830251076e-09  5.0383516997601629e-09  8.5404833602362841e-09  1.4477388804287233e-08  2.4541597730880639e-08  4.1602277025930322e-08  7.0523190591953743e-08  1.1954929122347689e-07  2.0265724271031520e-07  3.4353997353809655e-07  5.8236120338279982e-07  9.8720556456094218e-07  1.6734885898295969e-06  2.8368600858280830e-06  4.8089811892320560e-06  8.1520763735365852e-06  1.3819215876971692e-05  2.3426022856777363e-05  3.9711265224753258e-05  6.7317640531392608e-05  1.1411534487922933e-04  1.9344575707177933e-04  3.2792488134201093e-04  5.5589085761592778e-04  9.4233363535536831e-04  1.5974227097710827e-03  2.7079149209458466e-03  4.5903962397053077e-03  7.7815360060904219e-03  1.3191083680848197e-02  2.2361224390993674e-02  3.7906226496252179e-02  6.4257688280256464e-02  1.0892767379827219e-01  1.8464890122075570e-01  3.1299683977666776e-01  5.3049738523575896e-01  8.9879576707753372e-01  1.5208969441187870e+00  2.5630042415354310e+00  4.2581454581647513e+00  6.7933158822569242e+00  1.0000000000000000e+01  1.0000000000000000e+01  6.9132944583467859e+00  4.4087137336142996e+00  2.6804640269681355e+00  1.5966162369758088e+00  9.4459368630327989e-01  5.5771553981384769e-01  3.2908963262747576e-01  1.9414869316771813e-01  1.1453285913575453e-01  6.7564446475958218e-02  3.9856949908082126e-02  2.3511979984489336e-02  1.3869925693521993e-02  8.1819910683268299e-03  4.8266282244261672e-03  2.8472702429696638e-03  1.6796296349519293e-03  9.9082822011326227e-04  5.8449823756604651e-04  3.4480062511597882e-04  2.0340090599961836e-04  1.1998797434633738e-04  7.0781956043593900e-05  4.1754895260532381e-05  2.4631578098043369e-05  1.4530383463229492e-05  8.5716003558791015e-06  5.0564620575499866e-06  2.9828512156976024e-06  1.7596100348996111e-06  1.0380093586936538e-06  6.1233080621895981e-07  3.6121930469112670e-07  2.1308643517818534e-07  1.2570156365594679e-07  7.4152470840195656e-08  4.3743222735061817e-08  2.5804562936472888e-08  1.5222427433318272e-08  8.9799956300240790e-09  5.2976364847245529e-09  3.1255602922577845e-09  1.8445381464511313e-09  1.0893683362034622e-09  6.4476238443644498e-10  3.8396927838845733e-10  2.3264050747061671e-10  1.4763433033291837e-10  1.0471666058858467e-10  9.1652263680267606e-11  1.0471666058858401e-10  1.4763433033291672e-10  2.3264050747061366e-10  3.8396927838845211e-10  6.4476238443643619e-10  1.0893683362034474e-09  1.8445381464511060e-09  3.1255602922577390e-09  5.2976364847244751e-09  8.9799956300239516e-09  1.5222427433318044e-08  2.5804562936472570e-08  4.3743222735061248e-08  7.4152470840194915e-08  1.2570156365594536e-07  2.1308643517818235e-07  3.6121930469112263e-07  6.1233080621895250e-07  1.0380093586936424e-06  1.7596100348995890e-06  2.9828512156975575e-06  5.0564620575499214e-06  8.5716003558789880e-06  1.4530383463229333e-05  2.4631578098043054e-05  4.1754895260531744e-05  7.0781956043593046e-05  1.1998797434633589e-04  2.0340090599961613e-04  3.4480062511597448e-04  5.8449823756603816e-04  9.9082822011324688e-04  1.6796296349519135e-03  2.8472702429696343e-03  4.8266282244261100e-03  8.1819910683267223e-03  1.3869925693521792e-02  2.3511979984489173e-02  3.9856949908081821e-02  6.7564446475957607e-02  1.1453285913575338e-01  1.9414869316771607e-01  3.2908963262747476e-01  5.5771553981384603e-01  9.4459368630327578e-01  1.5966162369758012e+00  2.6804640269681186e+00  4.4087137336143059e+00  6.9132944583467841e+00  1.0000000000000000e+01  1.0000000000000000e+01  6.7933158822569242e+00  4.2581454581647442e+00  2.5630042415354470e+00  1.5208969441187936e+00  8.9879576707753728e-01  5.3049738523576062e-01  3.1299683977666864e-01  1.8464890122075767e-01  1.0892767379827314e-01  6.4257688280256992e-02  3.7906226496252471e-02  2.2361224390993827e-02  1.3191083680848387e-02  7.7815360060905277e-03  4.5903962397053615e-03  2.7079149209458761e-03  1.5974227097710983e-03  9.4233363535538327e-04  5.5589085761593581e-04  3.2792488134201505e-04  1.9344575707178145e-04  1.1411534487923081e-04  6.7317640531393448e-05  3.9711265224753875e-05  2.3426022856777664e-05  1.3819215876971849e-05  8.1520763735366936e-06  4.8089811892321161e-06  2.8368600858281253e-06  1.6734885898296183e-06  9.8720556456095277e-07  5.8236120338280691e-07  3.4353997353810047e-07  2.0265724271031801e-07  1.1954929122347824e-07  7.0523190591954444e-08  4.1602277025930845e-08  2.4541597730880940e-08  1.4477388804287452e-08  8.5404833602364015e-09  5.0383516997602365e-09  2.9725844830251507e-09  1.7542600237373331e-09  1.0360508547919123e-09  6.1320546718028199e-10  3.6517648426849030e-10  2.2125427058414144e-10  1.4040859189199335e-10  9.9591462417441355e-11  8.7166482606320164e-11  9.9591462417440734e-11  1.4040859189199179e-10  2.2125427058413857e-10  3.6517648426848544e-10  6.1320546718027383e-10  1.0360508547918987e-09  1.7542600237373089e-09  2.9725844830251081e-09  5.0383516997601629e-09  8.5404833602362841e-09  1.4477388804287230e-08  2.4541597730880642e-08  4.1602277025930335e-08  7.0523190591953743e-08  1.1954929122347694e-07  2.0265724271031518e-07  3.4353997353809687e-07  5.8236120338280003e-07  9.8720556456094239e-07  1.6734885898295971e-06  2.8368600858280830e-06  4.8089811892320585e-06  8.1520763735365886e-06  1.3819215876971694e-05  2.3426022856777363e-05  3.9711265224753265e-05  6.7317640531392649e-05  1.1411534487922936e-04  1.9344575707177939e-04  3.2792488134201082e-04  5.5589085761592746e-04  9.4233363535536755e-04  1.5974227097710831e-03  2.7079149209458479e-03  4.5903962397053069e-03  7.7815360060904254e-03  1.3191083680848200e-02  2.2361224390993681e-02  3.7906226496252207e-02  6.4257688280256450e-02  1.0892767379827215e-01  1.8464890122075575e-01  3.1299683977666776e-01  5.3049738523575907e-01  8.9879576707753339e-01  1.5208969441187863e+00  2.5630042415354310e+00  4.2581454581647531e+00  6.7933158822569277e+00  1.0000000000000000e+01  1.0000000000000000e+01  6.3907452829028468e+00  3.7826701570684675e+00  2.2106548454858004e+00  1.2991136892063784e+00  7.6553458565358090e-01  4.5144170317782562e-01  2.6628229170603201e-01  1.5707734240036245e-01  9.2660420906699431e-02  5.4661035193827576e-02  3.2244994659905463e-02  1.9021599428420119e-02  1.1221007041814758e-02  6.6193700815093499e-03  3.9048243056589113e-03  2.3034900225003627e-03  1.3588489204326311e-03  8.0159686884731746e-04  4.7286900742150032e-04  2.7894956539861423e-04  1.6455478962651098e-04  9.7072310367092007e-05  5.7263805334418229e-05  3.3780419864125643e-05  1.9927365279592456e-05  1.1755327156537651e-05  6.9345703568965913e-06  4.0907637359700612e-06  2.4131773251913327e-06  1.4235544217064807e-06  8.3976721150340635e-07  4.9538602841045150e-07  2.9223255619142354e-07  1.7239054732992748e-07  1.0169470121716523e-07  5.9990609084611003e-08  3.5389010581393578e-08  2.0876329948024461e-08  1.2315202489193889e-08  7.2649690741022415e-09  4.2858779461629179e-09  2.5286313933800746e-09  1.4922627072518316e-09  8.8131749712256191e-10  5.2162372634279708e-10  3.1063767153414726e-10  1.8821012412374090e-10  1.1943868219249579e-10  8.4717558010358271e-11  7.4148238890270261e-11  8.4717558010357728e-11  1.1943868219249450e-10  1.8821012412373847e-10  3.1063767153414302e-10  5.2162372634279005e-10  8.8131749712255023e-10  1.4922627072518105e-09  2.5286313933800382e-09  4.2858779461628566e-09  7.2649690741021423e-09  1.2315202489193702e-08  2.0876329948024209e-08  3.5389010581393141e-08  5.9990609084610421e-08  1.0169470121716404e-07  1.7239054732992513e-07  2.9223255619142052e-07  4.9538602841044557e-07  8.3976721150339777e-07  1.4235544217064629e-06  2.4131773251912971e-06  4.0907637359700113e-06  6.9345703568965015e-06  1.1755327156537526e-05  1.9927365279592195e-05  3.3780419864125149e-05  5.7263805334417558e-05  9.7072310367090747e-05  1.6455478962650922e-04  2.7894956539861065e-04  4.7286900742149327e-04  8.0159686884730488e-04  1.3588489204326192e-03  2.3034900225003411e-03  3.9048243056588653e-03  6.6193700815092658e-03  1.1221007041814616e-02  1.9021599428420015e-02  3.2244994659905275e-02  5.4661035193827173e-02  9.2660420906698723e-02  1.5707734240036100e-01  2.6628229170603157e-01  4.5144170317782450e-01  7.6553458565357768e-01  1.2991136892063719e+00  2.2106548454857879e+00  3.7826701570684782e+00  6.3907452829028522e+00  1.0000000000000000e+01  1.0000000000000000e+01  5.5431091242905843e+00  2.9149514221827819e+00  1.6321894391084377e+00  9.4878487341940820e-01  5.5705842159041175e-01  3.2814834054824144e-01  1.9349342989732679e-01  1.1412840937114992e-01  6.7322640373766174e-02  3.9713729035113131e-02  2.3427389072484147e-02  1.3820006166554077e-02  8.1525397619504527e-03  4.8092540413986265e-03  2.8370209527120126e-03  1.6735834696150933e-03  9.8726153080371253e-04  5.8239421570858334e-04  3.4355944409883118e-04  2.02668722436