<?xml version="1.0"?>
<VTKFile type="UnstructuredGrid"  version="0.1"  >
<UnstructuredGrid>
<Piece  NumberOfPoints="2111" NumberOfCells="4000">
<Points>
<DataArray  type="Float64"  NumberOfComponents="3"  format="ascii">0 0 0  0.05 0 0  0.1 0 0  0.15 0 0  0.2 0 0  0.25 0 0  0.3 0 0  0.35 0 0  0.4 0 0  0.45 0 0  0.5 0 0  0.55 0 0  0.6 0 0  0.65 0 0  0.7 0 0  0.75 0 0  0.8 0 0  0.85 0 0  0.9 0 0  0.95 0 0  1 0 0  1.05 0 0  1.1 0 0  1.15 0 0  1.2 0 0  1.25 0 0  1.3 0 0  1.35 0 0  1.4 0 0  1.45 0 0  1.5 0 0  1.55 0 0  1.6 0 0  1.65 0 0  1.7 0 0  1.75 0 0  1.8 0 0  1.85 0 0  1.9 0 0  1.95 0 0  2 0 0  2.05 0 0  2.1 0 0  2.15 0 0  2.2 0 0  2.25 0 0  2.3 0 0  2.35 0 0  2.4 0 0  2.45 0 0  2.5 0 0  2.55 0 0  2.6 0 0  2.65 0 0  2.7 0 0  2.75 0 0  2.8 0 0  2.85 0 0  2.9 0 0  2.95 0 0  3 0 0  3.05 0 0  3.1 0 0  3.15 0 0  3.2 0 0  3.25 0 0  3.3 0 0  3.35 0 0  3.4 0 0  3.45 0 0  3.5 0 0  3.55 0 0  3.6 0 0  3.65 0 0  3.7 0 0  3.75 0 0  3.8 0 0  3.85 0 0  3.9 0 0  3.95 0 0  4 0 0  4.05 0 0  4.1 0 0  4.15 0 0  4.2 0 0  4.25 0 0  4.3 0 0  4.35 0 0  4.4 0 0  4.45 0 0  4.5 0 0  4.55 0 0  4.6 0 0  4.65 0 0  4.7 0 0  4.75 0 0  4.8 0 0  4.85 0 0  4.9 0 0  4.95 0 0  5 0 0  0 0.03 0  0.05 0.03 0  0.1 0.03 0  0.15 0.03 0  0.2 0.03 0  0.25 0.03 0  0.3 0.03 0  0.35 0.03 0  0.4 0.03 0  0.45 0.03 0  0.5 0.03 0  0.55 0.03 0  0.6 0.03 0  0.65 0.03 0  0.7 0.03 0  0.75 0.03 0  0.8 0.03 0  0.85 0.03 0  0.9 0.03 0  0.95 0.03 0  1 0.03 0  1.05 0.03 0  1.1 0.03 0  1.15 0.03 0  1.2 0.03 0  1.25 0.03 0  1.3 0.03 0  1.35 0.03 0  1.4 0.03 0  1.45 0.03 0  1.5 0.03 0  1.55 0.03 0  1.6 0.03 0  1.65 0.03 0  1.7 0.03 0  1.75 0.03 0  1.8 0.03 0  1.85 0.03 0  1.9 0.03 0  1.95 0.03 0  2 0.03 0  2.05 0.03 0  2.1 0.03 0  2.15 0.03 0  2.2 0.03 0  2.25 0.03 0  2.3 0.03 0  2.35 0.03 0  2.4 0.03 0  2.45 0.03 0  2.5 0.03 0  2.55 0.03 0  2.6 0.03 0  2.65 0.03 0  2.7 0.03 0  2.75 0.03 0  2.8 0.03 0  2.85 0.03 0  2.9 0.03 0  2.95 0.03 0  3 0.03 0  3.05 0.03 0  3.1 0.03 0  3.15 0.03 0  3.2 0.03 0  3.25 0.03 0  3.3 0.03 0  3.35 0.03 0  3.4 0.03 0  3.45 0.03 0  3.5 0.03 0  3.55 0.03 0  3.6 0.03 0  3.65 0.03 0  3.7 0.03 0  3.75 0.03 0  3.8 0.03 0  3.85 0.03 0  3.9 0.03 0  3.95 0.03 0  4 0.03 0  4.05 0.03 0  4.1 0.03 0  4.15 0.03 0  4.2 0.03 0  4.25 0.03 0  4.3 0.03 0  4.35 0.03 0  4.4 0.03 0  4.45 0.03 0  4.5 0.03 0  4.55 0.03 0  4.6 0.03 0  4.65 0.03 0  4.7 0.03 0  4.75 0.03 0  4.8 0.03 0  4.85 0.03 0  4.9 0.03 0  4.95 0.03 0  5 0.03 0  0 0.06 0  0.05 0.06 0  0.1 0.06 0  0.15 0.06 0  0.2 0.06 0  0.25 0.06 0  0.3 0.06 0  0.35 0.06 0  0.4 0.06 0  0.45 0.06 0  0.5 0.06 0  0.55 0.06 0  0.6 0.06 0  0.65 0.06 0  0.7 0.06 0  0.75 0.06 0  0.8 0.06 0  0.85 0.06 0  0.9 0.06 0  0.95 0.06 0  1 0.06 0  1.05 0.06 0  1.1 0.06 0  1.15 0.06 0  1.2 0.06 0  1.25 0.06 0  1.3 0.06 0  1.35 0.06 0  1.4 0.06 0  1.45 0.06 0  1.5 0.06 0  1.55 0.06 0  1.6 0.06 0  1.65 0.06 0  1.7 0.06 0  1.75 0.06 0  1.8 0.06 0  1.85 0.06 0  1.9 0.06 0  1.95 0.06 0  2 0.06 0  2.05 0.06 0  2.1 0.06 0  2.15 0.06 0  2.2 0.06 0  2.25 0.06 0  2.3 0.06 0  2.35 0.06 0  2.4 0.06 0  2.45 0.06 0  2.5 0.06 0  2.55 0.06 0  2.6 0.06 0  2.65 0.06 0  2.7 0.06 0  2.75 0.06 0  2.8 0.06 0  2.85 0.06 0  2.9 0.06 0  2.95 0.06 0  3 0.06 0  3.05 0.06 0  3.1 0.06 0  3.15 0.06 0  3.2 0.06 0  3.25 0.06 0  3.3 0.06 0  3.35 0.06 0  3.4 0.06 0  3.45 0.06 0  3.5 0.06 0  3.55 0.06 0  3.6 0.06 0  3.65 0.06 0  3.7 0.06 0  3.75 0.06 0  3.8 0.06 0  3.85 0.06 0  3.9 0.06 0  3.95 0.06 0  4 0.06 0  4.05 0.06 0  4.1 0.06 0  4.15 0.06 0  4.2 0.06 0  4.25 0.06 0  4.3 0.06 0  4.35 0.06 0  4.4 0.06 0  4.45 0.06 0  4.5 0.06 0  4.55 0.06 0  4.6 0.06 0  4.65 0.06 0  4.7 0.06 0  4.75 0.06 0  4.8 0.06 0  4.85 0.06 0  4.9 0.06 0  4.95 0.06 0  5 0.06 0  0 0.09 0  0.05 0.09 0  0.1 0.09 0  0.15 0.09 0  0.2 0.09 0  0.25 0.09 0  0.3 0.09 0  0.35 0.09 0  0.4 0.09 0  0.45 0.09 0  0.5 0.09 0  0.55 0.09 0  0.6 0.09 0  0.65 0.09 0  0.7 0.09 0  0.75 0.09 0  0.8 0.09 0  0.85 0.09 0  0.9 0.09 0  0.95 0.09 0  1 0.09 0  1.05 0.09 0  1.1 0.09 0  1.15 0.09 0  1.2 0.09 0  1.25 0.09 0  1.3 0.09 0  1.35 0.09 0  1.4 0.09 0  1.45 0.09 0  1.5 0.09 0  1.55 0.09 0  1.6 0.09 0  1.65 0.09 0  1.7 0.09 0  1.75 0.09 0  1.8 0.09 0  1.85 0.09 0  1.9 0.09 0  1.95 0.09 0  2 0.09 0  2.05 0.09 0  2.1 0.09 0  2.15 0.09 0  2.2 0.09 0  2.25 0.09 0  2.3 0.09 0  2.35 0.09 0  2.4 0.09 0  2.45 0.09 0  2.5 0.09 0  2.55 0.09 0  2.6 0.09 0  2.65 0.09 0  2.7 0.09 0  2.75 0.09 0  2.8 0.09 0  2.85 0.09 0  2.9 0.09 0  2.95 0.09 0  3 0.09 0  3.05 0.09 0  3.1 0.09 0  3.15 0.09 0  3.2 0.09 0  3.25 0.09 0  3.3 0.09 0  3.35 0.09 0  3.4 0.09 0  3.45 0.09 0  3.5 0.09 0  3.55 0.09 0  3.6 0.09 0  3.65 0.09 0  3.7 0.09 0  3.75 0.09 0  3.8 0.09 0  3.85 0.09 0  3.9 0.09 0  3.95 0.09 0  4 0.09 0  4.05 0.09 0  4.1 0.09 0  4.15 0.09 0  4.2 0.09 0  4.25 0.09 0  4.3 0.09 0  4.35 0.09 0  4.4 0.09 0  4.45 0.09 0  4.5 0.09 0  4.55 0.09 0  4.6 0.09 0  4.65 0.09 0  4.7 0.09 0  4.75 0.09 0  4.8 0.09 0  4.85 0.09 0  4.9 0.09 0  4.95 0.09 0  5 0.09 0  0 0.12 0  0.05 0.12 0  0.1 0.12 0  0.15 0.12 0  0.2 0.12 0  0.25 0.12 0  0.3 0.12 0  0.35 0.12 0  0.4 0.12 0  0.45 0.12 0  0.5 0.12 0  0.55 0.12 0  0.6 0.12 0  0.65 0.12 0  0.7 0.12 0  0.75 0.12 0  0.8 0.12 0  0.85 0.12 0  0.9 0.12 0  0.95 0.12 0  1 0.12 0  1.05 0.12 0  1.1 0.12 0  1.15 0.12 0  1.2 0.12 0  1.25 0.12 0  1.3 0.12 0  1.35 0.12 0  1.4 0.12 0  1.45 0.12 0  1.5 0.12 0  1.55 0.12 0  1.6 0.12 0  1.65 0.12 0  1.7 0.12 0  1.75 0.12 0  1.8 0.12 0  1.85 0.12 0  1.9 0.12 0  1.95 0.12 0  2 0.12 0  2.05 0.12 0  2.1 0.12 0  2.15 0.12 0  2.2 0.12 0  2.25 0.12 0  2.3 0.12 0  2.35 0.12 0  2.4 0.12 0  2.45 0.12 0  2.5 0.12 0  2.55 0.12 0  2.6 0.12 0  2.65 0.12 0  2.7 0.12 0  2.75 0.12 0  2.8 0.12 0  2.85 0.12 0  2.9 0.12 0  2.95 0.12 0  3 0.12 0  3.05 0.12 0  3.1 0.12 0  3.15 0.12 0  3.2 0.12 0  3.25 0.12 0  3.3 0.12 0  3.35 0.12 0  3.4 0.12 0  3.45 0.12 0  3.5 0.12 0  3.55 0.12 0  3.6 0.12 0  3.65 0.12 0  3.7 0.12 0  3.75 0.12 0  3.8 0.12 0  3.85 0.12 0  3.9 0.12 0  3.95 0.12 0  4 0.12 0  4.05 0.12 0  4.1 0.12 0  4.15 0.12 0  4.2 0.12 0  4.25 0.12 0  4.3 0.12 0  4.35 0.12 0  4.4 0.12 0  4.45 0.12 0  4.5 0.12 0  4.55 0.12 0  4.6 0.12 0  4.65 0.12 0  4.7 0.12 0  4.75 0.12 0  4.8 0.12 0  4.85 0.12 0  4.9 0.12 0  4.95 0.12 0  5 0.12 0  0 0.15 0  0.05 0.15 0  0.1 0.15 0  0.15 0.15 0  0.2 0.15 0  0.25 0.15 0  0.3 0.15 0  0.35 0.15 0  0.4 0.15 0  0.45 0.15 0  0.5 0.15 0  0.55 0.15 0  0.6 0.15 0  0.65 0.15 0  0.7 0.15 0  0.75 0.15 0  0.8 0.15 0  0.85 0.15 0  0.9 0.15 0  0.95 0.15 0  1 0.15 0  1.05 0.15 0  1.1 0.15 0  1.15 0.15 0  1.2 0.15 0  1.25 0.15 0  1.3 0.15 0  1.35 0.15 0  1.4 0.15 0  1.45 0.15 0  1.5 0.15 0  1.55 0.15 0  1.6 0.15 0  1.65 0.15 0  1.7 0.15 0  1.75 0.15 0  1.8 0.15 0  1.85 0.15 0  1.9 0.15 0  1.95 0.15 0  2 0.15 0  2.05 0.15 0  2.1 0.15 0  2.15 0.15 0  2.2 0.15 0  2.25 0.15 0  2.3 0.15 0  2.35 0.15 0  2.4 0.15 0  2.45 0.15 0  2.5 0.15 0  2.55 0.15 0  2.6 0.15 0  2.65 0.15 0  2.7 0.15 0  2.75 0.15 0  2.8 0.15 0  2.85 0.15 0  2.9 0.15 0  2.95 0.15 0  3 0.15 0  3.05 0.15 0  3.1 0.15 0  3.15 0.15 0  3.2 0.15 0  3.25 0.15 0  3.3 0.15 0  3.35 0.15 0  3.4 0.15 0  3.45 0.15 0  3.5 0.15 0  3.55 0.15 0  3.6 0.15 0  3.65 0.15 0  3.7 0.15 0  3.75 0.15 0  3.8 0.15 0  3.85 0.15 0  3.9 0.15 0  3.95 0.15 0  4 0.15 0  4.05 0.15 0  4.1 0.15 0  4.15 0.15 0  4.2 0.15 0  4.25 0.15 0  4.3 0.15 0  4.35 0.15 0  4.4 0.15 0  4.45 0.15 0  4.5 0.15 0  4.55 0.15 0  4.6 0.15 0  4.65 0.15 0  4.7 0.15 0  4.75 0.15 0  4.8 0.15 0  4.85 0.15 0  4.9 0.15 0  4.95 0.15 0  5 0.15 0  0 0.18 0  0.05 0.18 0  0.1 0.18 0  0.15 0.18 0  0.2 0.18 0  0.25 0.18 0  0.3 0.18 0  0.35 0.18 0  0.4 0.18 0  0.45 0.18 0  0.5 0.18 0  0.55 0.18 0  0.6 0.18 0  0.65 0.18 0  0.7 0.18 0  0.75 0.18 0  0.8 0.18 0  0.85 0.18 0  0.9 0.18 0  0.95 0.18 0  1 0.18 0  1.05 0.18 0  1.1 0.18 0  1.15 0.18 0  1.2 0.18 0  1.25 0.18 0  1.3 0.18 0  1.35 0.18 0  1.4 0.18 0  1.45 0.18 0  1.5 0.18 0  1.55 0.18 0  1.6 0.18 0  1.65 0.18 0  1.7 0.18 0  1.75 0.18 0  1.8 0.18 0  1.85 0.18 0  1.9 0.18 0  1.95 0.18 0  2 0.18 0  2.05 0.18 0  2.1 0.18 0  2.15 0.18 0  2.2 0.18 0  2.25 0.18 0  2.3 0.18 0  2.35 0.18 0  2.4 0.18 0  2.45 0.18 0  2.5 0.18 0  2.55 0.18 0  2.6 0.18 0  2.65 0.18 0  2.7 0.18 0  2.75 0.18 0  2.8 0.18 0  2.85 0.18 0  2.9 0.18 0  2.95 0.18 0  3 0.18 0  3.05 0.18 0  3.1 0.18 0  3.15 0.18 0  3.2 0.18 0  3.25 0.18 0  3.3 0.18 0  3.35 0.18 0  3.4 0.18 0  3.45 0.18 0  3.5 0.18 0  3.55 0.18 0  3.6 0.18 0  3.65 0.18 0  3.7 0.18 0  3.75 0.18 0  3.8 0.18 0  3.85 0.18 0  3.9 0.18 0  3.95 0.18 0  4 0.18 0  4.05 0.18 0  4.1 0.18 0  4.15 0.18 0  4.2 0.18 0  4.25 0.18 0  4.3 0.18 0  4.35 0.18 0  4.4 0.18 0  4.45 0.18 0  4.5 0.18 0  4.55 0.18 0  4.6 0.18 0  4.65 0.18 0  4.7 0.18 0  4.75 0.18 0  4.8 0.18 0  4.85 0.18 0  4.9 0.18 0  4.95 0.18 0  5 0.18 0  0 0.21 0  0.05 0.21 0  0.1 0.21 0  0.15 0.21 0  0.2 0.21 0  0.25 0.21 0  0.3 0.21 0  0.35 0.21 0  0.4 0.21 0  0.45 0.21 0  0.5 0.21 0  0.55 0.21 0  0.6 0.21 0  0.65 0.21 0  0.7 0.21 0  0.75 0.21 0  0.8 0.21 0  0.85 0.21 0  0.9 0.21 0  0.95 0.21 0  1 0.21 0  1.05 0.21 0  1.1 0.21 0  1.15 0.21 0  1.2 0.21 0  1.25 0.21 0  1.3 0.21 0  1.35 0.21 0  1.4 0.21 0  1.45 0.21 0  1.5 0.21 0  1.55 0.21 0  1.6 0.21 0  1.65 0.21 0  1.7 0.21 0  1.75 0.21 0  1.8 0.21 0  1.85 0.21 0  1.9 0.21 0  1.95 0.21 0  2 0.21 0  2.05 0.21 0  2.1 0.21 0  2.15 0.21 0  2.2 0.21 0  2.25 0.21 0  2.3 0.21 0  2.35 0.21 0  2.4 0.21 0  2.45 0.21 0  2.5 0.21 0  2.55 0.21 0  2.6 0.21 0  2.65 0.21 0  2.7 0.21 0  2.75 0.21 0  2.8 0.21 0  2.85 0.21 0  2.9 0.21 0  2.95 0.21 0  3 0.21 0  3.05 0.21 0  3.1 0.21 0  3.15 0.21 0  3.2 0.21 0  3.25 0.21 0  3.3 0.21 0  3.35 0.21 0  3.4 0.21 0  3.45 0.21 0  3.5 0.21 0  3.55 0.21 0  3.6 0.21 0  3.65 0.21 0  3.7 0.21 0  3.75 0.21 0  3.8 0.21 0  3.85 0.21 0  3.9 0.21 0  3.95 0.21 0  4 0.21 0  4.05 0.21 0  4.1 0.21 0  4.15 0.21 0  4.2 0.21 0  4.25 0.21 0  4.3 0.21 0  4.35 0.21 0  4.4 0.21 0  4.45 0.21 0  4.5 0.21 0  4.55 0.21 0  4.6 0.21 0  4.65 0.21 0  4.7 0.21 0  4.75 0.21 0  4.8 0.21 0  4.85 0.21 0  4.9 0.21 0  4.95 0.21 0  5 0.21 0  0 0.24 0  0.05 0.24 0  0.1 0.24 0  0.15 0.24 0  0.2 0.24 0  0.25 0.24 0  0.3 0.24 0
[...]
<PointData  Scalars="Final Temperature"> 
<DataArray  type="Float64"  Name="Final Temperature"  format="ascii">1.0000000000000000e+01  5.0000000000000000e+01  5.0000000000000000e+01  5.0000000000000000e+01  5.0000000000000000e+01  5.0000000000000000e+01  5.0000000000000000e+01  5.0000000000000000e+01  5.0000000000000000e+01  5.0000000000000000e+01  5.0000000000000000e+01  5.0000000000000000e+01  5.0000000000000000e+01  5.0000000000000000e+01  5.0000000000000000e+01  5.0000000000000000e+01  5.0000000000000000e+01  5.0000000000000000e+01  5.0000000000000000e+01  5.0000000000000000e+01  5.0000000000000000e+01  5.0000000000000000e+01  5.0000000000000007e+01  5.0000000000000007e+01  5.0000000000000000e+01  5.0000000000000000e+01  5.0000000000000000e+01  5.0000000000000007e+01  5.0000000000000007e+01  5.0000000000000000e+01  5.0000000000000000e+01  5.0000000000000000e+01  5.0000000000000007e+01  5.0000000000000007e+01  5.0000000000000000e+01  5.0000000000000000e+01  5.0000000000000000e+01  5.0000000000000007e+01  5.0000000000000007e+01  5.0000000000000000e+01  5.0000000000000000e+01  5.0000000000000000e+01  5.0000000000000000e+01  5.0000000000000000e+01  5.0000000000000000e+01  5.0000000000000000e+01  5.0000000000000000e+01  5.0000000000000000e+01  5.0000000000000000e+01  5.0000000000000000e+01  5.0000000000000000e+01  5.0000000000000000e+01  5.0000000000000000e+01  5.0000000000000000e+01  5.0000000000000000e+01  5.0000000000000000e+01  5.0000000000000000e+01  5.0000000000000000e+01  5.0000000000000000e+01  5.0000000000000000e+01  5.0000000000000000e+01  5.0000000000000000e+01  5.0000000000000000e+01  5.0000000000000000e+01  5.0000000000000000e+01  5.0000000000000000e+01  5.0000000000000000e+01  5.0000000000000000e+01  5.0000000000000000e+01  5.0000000000000000e+01  5.0000000000000000e+01  5.0000000000000000e+01  5.0000000000000000e+01  5.0000000000000000e+01  5.0000000000000000e+01  5.0000000000000000e+01  5.0000000000000000e+01  5.0000000000000000e+01  5.0000000000000000e+01  5.0000000000000000e+01  5.0000000000000000e+01  5.0000000000000000e+01  5.0000000000000000e+01  5.0000000000000000e+01  5.0000000000000000e+01  5.0000000000000000e+01  5.0000000000000000e+01  5.0000000000000000e+01  5.0000000000000000e+01  5.0000000000000000e+01  5.0000000000000000e+01  5.0000000000000000e+01  5.0000000000000000e+01  5.0000000000000000e+01  5.0000000000000000e+01  5.0000000000000000e+01  5.0000000000000000e+01  5.0000000000000000e+01  5.0000000000000000e+01  5.0000000000000000e+01  1.0000000000000000e+01  1.0000000000000000e+01  3.3469875124129899e+01  4.1271762097201389e+01  4.3257088023349496e+01  4.4103720402886687e+01  4.4511210273931461e+01  4.4724587500999299e+01  4.4841800842775363e+01  4.4908103692507218e+01  4.4946269079656965e+01  4.4968465314292899e+01  4.4981451996558491e+01  4.4989076816623914e+01  4.4993562555096482e+01  4.4996204603971094e+01  4.4997761775990739e+01  4.4998679893345404e+01  4.4999221339144498e+01  4.4999540688753541e+01  4.4999729057614509e+01  4.4999840171874638e+01  4.4999905717058759e+01  4.4999944382029327e+01  4.4999967190594667e+01  4.4999980645486033e+01  4.4999988582616844e+01  4.4999993264790511e+01  4.4999996026842574e+01  4.4999997656200208e+01  4.4999998617372150e+01  4.4999999184375802e+01  4.4999999518856193e+01  4.4999999716169043e+01  4.4999999832565642e+01  4.4999999901228989e+01  4.4999999941734124e+01  4.4999999965628469e+01  4.4999999979723896e+01  4.4999999988038923e+01  4.4999999992943998e+01  4.4999999995837584e+01  4.4999999997544442e+01  4.4999999998551260e+01  4.4999999999145039e+01  4.4999999999495067e+01  4.4999999999701160e+01  4.4999999999822059e+01  4.4999999999892189e+01  4.4999999999931596e+01  4.4999999999951484e+01  4.4999999999957552e+01  4.4999999999951477e+01  4.4999999999931596e+01  4.4999999999892196e+01  4.4999999999822030e+01  4.4999999999701153e+01  4.4999999999495081e+01  4.4999999999145039e+01  4.4999999998551232e+01  4.4999999997544428e+01  4.4999999995837562e+01  4.4999999992944041e+01  4.4999999988038944e+01  4.4999999979723924e+01  4.4999999965628454e+01  4.4999999941734146e+01  4.4999999901229039e+01  4.4999999832565670e+01  4.4999999716169071e+01  4.4999999518856178e+01  4.4999999184375838e+01  4.4999998617372178e+01  4.4999997656200243e+01  4.4999996026842602e+01  4.4999993264790533e+01  4.4999988582616872e+01  4.4999980645486076e+01  4.4999967190594710e+01  4.4999944382029369e+01  4.4999905717058759e+01  4.4999840171874624e+01  4.4999729057614523e+01  4.4999540688753534e+01  4.4999221339144533e+01  4.4998679893345411e+01  4.4997761775990739e+01  4.4996204603971115e+01  4.4993562555096439e+01  4.4989076816623907e+01  4.4981451996558448e+01  4.4968465314292850e+01  4.4946269079656879e+01  4.4908103692507126e+01  4.4841800842775314e+01  4.4724587500999213e+01  4.4511210273931361e+01  4.4103720402886609e+01  4.3257088023349446e+01  4.1271762097201339e+01  3.3469875124129835e+01  1.0000000000000000e+01  1.0000000000000000e+01  2.5242292589296014e+01  3.3489393543209324e+01  3.6856858450839944e+01  3.8342508457242609e+01  3.9085306691295919e+01  3.9481023216211000e+01  3.9700710702851893e+01  3.9825746380902871e+01  3.9897980608149169e+01  3.9940079154307369e+01  3.9964740437676369e+01  3.9979229913307783e+01  3.9987757633479895e+01  3.9992781533093279e+01  3.9995742917330865e+01  3.9997489100062182e+01  3.9998518930203744e+01  3.9999126348633965e+01  3.9999484640523441e+01  3.9999695990046007e+01  3.9999820663596715e+01  3.9999894208471190e+01  3.9999937592849236e+01  3.9999963185542548e+01  3.9999978282852062e+01  3.9999987188872062e+01  3.9999992442606107e+01  3.9999995541828085e+01  3.9999997370085659e+01  3.9999998448590610e+01  3.9999999084810078e+01  3.9999999460121458e+01  3.9999999681520926e+01  3.9999999812126397e+01  3.9999999889171740e+01  3.9999999934621449e+01  3.9999999961432593e+01  3.9999999977248706e+01  3.9999999986578722e+01  3.9999999992082600e+01  3.9999999995329233e+01  3.9999999997244316e+01  3.9999999998373745e+01  3.9999999999039545e+01  3.9999999999431559e+01  3.9999999999661519e+01  3.9999999999794944e+01  3.9999999999869885e+01  3.9999999999907700e+01  3.9999999999919233e+01  3.9999999999907700e+01  3.9999999999869893e+01  3.9999999999794930e+01  3.9999999999661469e+01  3.9999999999431544e+01  3.9999999999039581e+01  3.9999999998373760e+01  3.9999999997244302e+01  3.9999999995329205e+01  3.9999999992082564e+01  3.9999999986578764e+01  3.9999999977248713e+01  3.9999999961432607e+01  3.9999999934621421e+01  3.9999999889171740e+01  3.9999999812126447e+01  3.9999999681520976e+01  3.9999999460121501e+01  3.9999999084810078e+01  3.9999998448590652e+01  3.9999997370085687e+01  3.9999995541828113e+01  3.9999992442606143e+01  3.9999987188872069e+01  3.9999978282852076e+01  3.9999963185542612e+01  3.9999937592849285e+01  3.9999894208471218e+01  3.9999820663596715e+01  3.9999695990046007e+01  3.9999484640523463e+01  3.9999126348634007e+01  3.9998518930203794e+01  3.9997489100062189e+01  3.9995742917330880e+01  3.9992781533093272e+01  3.9987757633479845e+01  3.9979229913307769e+01  3.9964740437676298e+01  3.9940079154307284e+01  3.9897980608149027e+01  3.9825746380902721e+01  3.9700710702851808e+01  3.9481023216210886e+01  3.9085306691295806e+01  3.8342508457242545e+01  3.6856858450839887e+01  3.3489393543209232e+01  2.5242292589295925e+01  1.0000000000000000e+01  1.0000000000000000e+01  2.0405541407553716e+01  2.7355967905083688e+01  3.0997366067532255e+01  3.2818040769666375e+01  3.3772639023699746e+01  3.4296089446082760e+01  3.4591527672024498e+01  3.4761323019867667e+01  3.4859973938804274e+01  3.4917658195306537e+01  3.4951514029303183e+01  3.4971427523416466e+01  3.4983154932560140e+01  3.4990066359033158e+01  3.4994141212301464e+01  3.4996544240232851e+01  3.4997961549119303e+01  3.4998797544654273e+01  3.4999290676178447e+01  3.4999581568781565e+01  3.4999753165491562e+01  3.4999854390748311e+01  3.4999914104026068e+01  3.4999949329280248e+01  3.4999970108921652e+01  3.4999982366998992e+01  3.4999989598140992e+01  3.4999993863853227e+01  3.4999996380233618e+01  3.4999997864668231e+01  3.4999998740349156e+01  3.4999999256920951e+01  3.4999999561651180e+01  3.4999999741414214e+01  3.4999999847457971e+01  3.4999999910014147e+01  3.4999999946916518e+01  3.4999999968685550e+01  3.4999999981527232e+01  3.4999999989102591e+01  3.4999999993571237e+01  3.4999999996207094e+01  3.4999999997761641e+01  3.4999999998678049e+01  3.4999999999217586e+01  3.4999999999534090e+01  3.4999999999717730e+01  3.4999999999820886e+01  3.4999999999872955e+01  3.4999999999888800e+01  3.4999999999872962e+01  3.4999999999820879e+01  3.4999999999717730e+01  3.4999999999534062e+01  3.4999999999217579e+01  3.4999999998678078e+01  3.4999999997761641e+01  3.4999999996207087e+01  3.4999999993571201e+01  3.4999999989102569e+01  3.4999999981527232e+01  3.4999999968685522e+01  3.4999999946916518e+01  3.4999999910014111e+01  3.4999999847457971e+01  3.4999999741414229e+01  3.4999999561651201e+01  3.4999999256920987e+01  3.4999998740349149e+01  3.4999997864668245e+01  3.4999996380233640e+01  3.4999993863853248e+01  3.4999989598141013e+01  3.4999982366999006e+01  3.4999970108921659e+01  3.4999949329280277e+01  3.4999914104026104e+01  3.4999854390748332e+01  3.4999753165491548e+01  3.4999581568781572e+01  3.4999290676178489e+01  3.4998797544654323e+01  3.4997961549119353e+01  3.4996544240232872e+01  3.4994141212301457e+01  3.4990066359033122e+01  3.4983154932560105e+01  3.4971427523416416e+01  3.4951514029303119e+01  3.4917658195306437e+01  3.4859973938804153e+01  3.4761323019867511e+01  3.4591527672024377e+01  3.4296089446082668e+01  3.3772639023699647e+01  3.2818040769666318e+01  3.0997366067532223e+01  2.7355967905083578e+01  2.0405541407553642e+01  1.0000000000000000e+01  1.0000000000000000e+01  1.7131959785369570e+01  2.2470480256959029e+01  2.5737122520128832e+01  2.7574789292185752e+01  2.8602986182865010e+01  2.9187724370162258e+01  2.9524912476446012e+01  2.9721134875513911e+01  2.9835968560072644e+01  2.9903397000045427e+01  2.9943067436397751e+01  2.9966433394193093e+01  2.9980204995867943e+01  2.9988324861783042e+01  2.9993113446921363e+01  2.9995937803315510e+01  2.9997603756234273e+01  2.9998586462438677e+01  2.9999166151161042e+01  2.9999508108431876e+01  2.9999709829928079e+01  2.9999828826496813e+01  2.9999899023374848e+01  2.9999940433046572e+01  2.9999964860946914e+01  2.9999979271169838e+01  2.9999987771883301e+01  2.9999992786527503e+01  2.9999995744709651e+01  2.9999997489767047e+01  2.9999998519191646e+01  2.9999999126458189e+01  2.9999999484690044e+01  2.9999999696014175e+01  2.9999999820676084e+01  2.9999999894215254e+01  2.9999999937596616e+01  2.9999999963187630e+01  2.9999999978283967e+01  2.9999999987189327e+01  2.9999999992442529e+01  2.9999999995541160e+01  2.9999999997368636e+01  2.9999999998445951e+01  2.9999999999080217e+01  2.9999999999452267e+01  2.9999999999668152e+01  2.9999999999789424e+01  2.9999999999850640e+01  2.9999999999869274e+01  2.9999999999850644e+01  2.9999999999789420e+01  2.9999999999668141e+01  2.9999999999452246e+01  2.9999999999080217e+01  2.9999999998445961e+01  2.9999999997368636e+01  2.9999999995541152e+01  2.9999999992442486e+01  2.9999999987189302e+01  2.9999999978283942e+01  2.9999999963187616e+01  2.9999999937596598e+01  2.9999999894215247e+01  2.9999999820676088e+01  2.9999999696014175e+01  2.9999999484690072e+01  2.9999999126458217e+01  2.9999998519191646e+01  2.9999997489767050e+01  2.9999995744709658e+01  2.9999992786527514e+01  2.9999987771883305e+01  2.9999979271169838e+01  2.9999964860946918e+01  2.9999940433046589e+01  2.9999899023374869e+01  2.9999828826496827e+01  2.9999709829928069e+01  2.9999508108431876e+01  2.9999166151161067e+01  2.9998586462438702e+01  2.9997603756234291e+01  2.9995937803315499e+01  2.9993113446921342e+01  2.9988324861783013e+01  2.9980204995867894e+01  2.9966433394193032e+01  2.9943067436397662e+01  2.9903397000045331e+01  2.9835968560072519e+01  2.9721134875513762e+01  2.9524912476445891e+01  2.9187724370162158e+01  2.8602986182864907e+01  2.7574789292185688e+01  2.5737122520128779e+01  2.2470480256958922e+01  1.7131959785369510e+01  1.0000000000000000e+01  1.0000000000000000e+01  1.4630058312479857e+01  1.8386929399578602e+01  2.0979303959547845e+01  2.2605075644536342e+01  2.3583109470545153e+01  2.4163426690279319e+01  2.4506365551058895e+01  2.4708776960248521e+01  2.4828200711296457e+01  2.4898653330286127e+01  2.4940214575137929e+01  2.4964732030023292e+01  2.4979195111459724e+01  2.4987727013397500e+01  2.4992760057663364e+01  2.4995729094635546e+01  2.4997480555547558e+01  2.4998513757669802e+01  2.4999123252643628e+01  2.4999482799062317e+01  2.4999694898641003e+01  2.4999820018038466e+01  2.4999893827065925e+01  2.4999937367657118e+01  2.4999963052632854e+01  2.4999978204424824e+01  2.4999987142599469e+01  2.4999992415306920e+01  2.4999995525723200e+01  2.4999997360584960e+01  2.4999998442985984e+01  2.4999999081503795e+01  2.4999999458171047e+01  2.4999999680370376e+01  2.4999999811447669e+01  2.4999999888771338e+01  2.4999999934385194e+01  2.4999999961293181e+01  2.4999999977166411e+01  2.4999999986530060e+01  2.4999999992053599e+01  2.4999999995311697e+01  2.4999999997233214e+01  2.4999999998365968e+01  2.4999999999032877e+01  2.4999999999424080e+01  2.4999999999651074e+01  2.4999999999778584e+01  2.4999999999842949e+01  2.4999999999862535e+01  2.4999999999842956e+01  2.4999999999778574e+01  2.4999999999651060e+01  2.4999999999424062e+01  2.4999999999032877e+01  2.4999999998365986e+01  2.4999999997233221e+01  2.4999999995311683e+01  2.4999999992053560e+01  2.4999999986530014e+01  2.4999999977166379e+01  2.4999999961293170e+01  2.4999999934385176e+01  2.4999999888771310e+01  2.4999999811447676e+01  2.4999999680370379e+01  2.4999999458171079e+01  2.4999999081503823e+01  2.4999998442985984e+01  2.4999997360584963e+01  2.4999995525723207e+01  2.4999992415306934e+01  2.4999987142599476e+01  2.4999978204424821e+01  2.4999963052632857e+01  2.4999937367657132e+01  2.4999893827065950e+01  2.4999820018038495e+01  2.4999694898640989e+01  2.4999482799062303e+01  2.4999123252643624e+01  2.4998513757669809e+01  2.4997480555547543e+01  2.4995729094635514e+01  2.4992760057663311e+01  2.4987727013397460e+01  2.4979195111459671e+01  2.4964732030023221e+01  2.4940214575137844e+01  2.4898653330286024e+01  2.4828200711296336e+01  2.4708776960248407e+01  2.4506365551058774e+01  2.4163426690279234e+01  2.3583109470545054e+01  2.2605075644536278e+01  2.0979303959547785e+01  1.8386929399578513e+01  1.4630058312479800e+01  1.0000000000000000e+01  1.0000000000000000e+01  1.2488092567859724e+01  1.4755083368546831e+01  1.6573864755264918e+01  1.7862519875457981e+01  1.8700626515902528e+01  1.9220783474130641e+01  1.9536097004224182e+01  1.9724918420824014e+01  1.9837248418532699e+01  1.9903829935113922e+01  1.9943213884113579e+01  1.9966482932633969e+01  1.9980221753089523e+01  1.9988330530198681e+01  1.9993115364359515e+01  1.9995938451921635e+01  1.9997603975636366e+01  1.9998586536655189e+01  1.9999166176266062e+01  1.9999508116924080e+01  1.9999709832800711e+01  1.9999828827468537e+01  1.9999899023703549e+01  1.9999940433157764e+01  1.9999964860984520e+01  1.9999979271182561e+01  1.9999987771887596e+01  1.9999992786528946e+01  1.9999995744710134e+01  1.9999997489767210e+01  1.9999998519191688e+01  1.9999999126458214e+01  1.9999999484690040e+01  1.9999999696014154e+01  1.9999999820676077e+01  1.9999999894215254e+01  1.9999999937596606e+01  1.9999999963187630e+01  1.9999999978283963e+01  1.9999999987189319e+01  1.9999999992442515e+01  1.9999999995541160e+01  1.9999999997368633e+01  1.9999999998445944e+01  1.9999999999080210e+01  1.9999999999452267e+01  1.9999999999668159e+01  1.9999999999789420e+01  1.9999999999850633e+01  1.9999999999869274e+01  1.9999999999850644e+01  1.9999999999789420e+01  1.9999999999668148e+01  1.9999999999452260e+01  1.9999999999080217e+01  1.9999999998445961e+01  1.9999999997368636e+01  1.9999999995541145e+01  1.9999999992442483e+01  1.9999999987189284e+01  1.9999999978283931e+01  1.9999999963187619e+01  1.9999999937596595e+01  1.9999999894215232e+01  1.9999999820676091e+01  1.9999999696014168e+01  1.9999999484690083e+01  1.9999999126458238e+01  1.9999998519191699e+01  1.9999997489767225e+01  1.9999995744710144e+01  1.9999992786528971e+01  1.9999987771887607e+01  1.9999979271182553e+01  1.9999964860984527e+01  1.9999940433157775e+01  1.9999899023703573e+01  1.9999828827468555e+01  1.9999709832800701e+01  1.9999508116924066e+01  1.9999166176266055e+01  1.9998586536655178e+01  1.9997603975636348e+01  1.9995938451921603e+01  1.9993115364359454e+01  1.9988330530198638e+01  1.9980221753089477e+01  1.9966482932633905e+01  1.9943213884113504e+01  1.9903829935113841e+01  1.9837248418532607e+01  1.9724918420823919e+01  1.9536097004224082e+01  1.9220783474130567e+01  1.8700626515902446e+01  1.7862519875457920e+01  1.6573864755264871e+01  1.4755083368546767e+01  1.2488092567859681e+01  1.0000000000000000e+01  1.0000000000000000e+01  1.0422222743737805e+01  1.1296021623711004e+01  1.2370669396010401e+01  1.3284618162714580e+01  1.3930757219339647e+01  1.4349585444383910e+01  1.4609625452857584e+01  1.4767444952931413e+01  1.4862044798475758e+01  1.4918358699112089e+01  1.4951750986717158e+01  1.4971507678298305e+01  1.4983182046314408e+01  1.4990075530722301e+01  1.4994144314781540e+01  1.4996545289699604e+01  1.4997961904119332e+01  1.4998797664739103e+01  1.4999290716799216e+01  1.4999581582522225e+01  1.4999753170139563e+01  1.4999854392320586e+01  1.4999914104557917e+01  1.4999949329460158e+01  1.4999970108982509e+01  1.4999982367019564e+01  1.4999989598147952e+01  1.4999993863855581e+01  1.4999996380234414e+01  1.4999997864668511e+01  1.4999998740349232e+01  1.4999999256920983e+01  1.4999999561651164e+01  1.4999999741414188e+01  1.4999999847457964e+01  1.4999999910014107e+01  1.4999999946916507e+01  1.4999999968685522e+01  1.4999999981527223e+01  1.4999999989102578e+01  1.4999999993571207e+01  1.4999999996207078e+01  1.4999999997761623e+01  1.4999999998678033e+01  1.4999999999217575e+01  1.4999999999534069e+01  1.4999999999717716e+01  1.4999999999820865e+01  1.4999999999872935e+01  1.4999999999888797e+01  1.4999999999872946e+01  1.4999999999820869e+01  1.4999999999717707e+01  1.4999999999534060e+01  1.4999999999217581e+01  1.4999999998678048e+01  1.4999999997761627e+01  1.4999999996207066e+01  1.4999999993571189e+01  1.4999999989102557e+01  1.4999999981527202e+01  1.4999999968685517e+01  1.4999999946916494e+01  1.4999999910014095e+01  1.4999999847457962e+01  1.4999999741414198e+01  1.4999999561651203e+01  1.4999999256920999e+01  1.4999998740349241e+01  1.4999997864668527e+01  1.4999996380234432e+01  1.4999993863855595e+01  1.4999989598147959e+01  1.4999982367019562e+01  1.4999970108982513e+01  1.4999949329460168e+01  1.4999914104557940e+01  1.4999854392320595e+01  1.4999753170139559e+01  1.4999581582522216e+01  1.4999290716799209e+01  1.4998797664739095e+01  1.4997961904119324e+01  1.4996545289699581e+01  1.4994144314781495e+01  1.4990075530722276e+01  1.4983182046314383e+01  1.4971507678298270e+01  1.4951750986717112e+01  1.4918358699112034e+01  1.4862044798475701e+01  1.4767444952931351e+01  1.4609625452857516e+01  1.4349585444383854e+01  1.3930757219339581e+01  1.3284618162714532e+01  1.2370669396010369e+01  1.1296021623710965e+01  1.0422222743737780e+01  1.0000000000000000e+01  1.0000000000000000e+01  8.1283800378322919e+00  7.7657521902424111e+00  8.2465732318348088e+00  8.8111369224992337e+00  9.2435180439329692e+00  9.5345317621444110e+00  9.7188090074562403e+00  9.8318683909838054e+00  9.9000514707296450e+00  9.9407796585873598e+00  9.9649773951062315e+00  9.9793100681925697e+00  9.9877847472342491e+00  9.9927907047824789e+00  9.9957460198109604e+00  9.9974901495289323e+00  9.9985192852037788e+00  9.9991264687188206e+00  9.9994846811442137e+00  9.999696003786670