<?xml version="1.0"?>
<VTKFile type="UnstructuredGrid"  version="0.1"  >
<UnstructuredGrid>
<Piece  NumberOfPoints="5101" NumberOfCells="10000">
<Points>
<DataArray  type="Float64"  NumberOfComponents="3"  format="ascii">0 0 0  0.2 0 0  0.4 0 0  0.6 0 0  0.8 0 0  1 0 0  1.2 0 0  1.4 0 0  1.6 0 0  1.8 0 0  2 0 0  2.2 0 0  2.4 0 0  2.6 0 0  2.8 0 0  3 0 0  3.2 0 0  3.4 0 0  3.6 0 0  3.8 0 0  4 0 0  4.2 0 0  4.4 0 0  4.6 0 0  4.8 0 0  5 0 0  5.2 0 0  5.4 0 0  5.6 0 0  5.8 0 0  6 0 0  6.2 0 0  6.4 0 0  6.6 0 0  6.8 0 0  7 0 0  7.2 0 0  7.4 0 0  7.6 0 0  7.8 0 0  8 0 0  8.199999999999999 0 0  8.4 0 0  8.6 0 0  8.800000000000001 0 0  9 0 0  9.199999999999999 0 0  9.4 0 0  9.6 0 0  9.800000000000001 0 0  10 0 0  0 0.2 0  0.2 0.2 0  0.4 0.2 0  0.6 0.2 0  0.8 0.2 0  1 0.2 0  1.2 0.2 0  1.4 0.2 0  1.6 0.2 0  1.8 0.2 0  2 0.2 0  2.2 0.2 0  2.4 0.2 0  2.6 0.2 0  2.8 0.2 0  3 0.2 0  3.2 0.2 0  3.4 0.2 0  3.6 0.2 0  3.8 0.2 0  4 0.2 0  4.2 0.2 0  4.4 0.2 0  4.6 0.2 0  4.8 0.2 0  5 0.2 0  5.2 0.2 0  5.4 0.2 0  5.6 0.2 0  5.8 0.2 0  6 0.2 0  6.2 0.2 0  6.4 0.2 0  6.6 0.2 0  6.8 0.2 0  7 0.2 0  7.2 0.2 0  7.4 0.2 0  7.6 0.2 0  7.8 0.2 0  8 0.2 0  8.199999999999999 0.2 0  8.4 0.2 0  8.6 0.2 0  8.800000000000001 0.2 0  9 0.2 0  9.199999999999999 0.2 0  9.4 0.2 0  9.6 0.2 0  9.800000000000001 0.2 0  10 0.2 0  0 0.4 0  0.2 0.4 0  0.4 0.4 0  0.6 0.4 0  0.8 0.4 0  1 0.4 0  1.2 0.4 0  1.4 0.4 0  1.6 0.4 0  1.8 0.4 0  2 0.4 0  2.2 0.4 0  2.4 0.4 0  2.6 0.4 0  2.8 0.4 0  3 0.4 0  3.2 0.4 0  3.4 0.4 0  3.6 0.4 0  3.8 0.4 0  4 0.4 0  4.2 0.4 0  4.4 0.4 0  4.6 0.4 0  4.8 0.4 0  5 0.4 0  5.2 0.4 0  5.4 0.4 0  5.6 0.4 0  5.8 0.4 0  6 0.4 0  6.2 0.4 0  6.4 0.4 0  6.6 0.4 0  6.8 0.4 0  7 0.4 0  7.2 0.4 0  7.4 0.4 0  7.6 0.4 0  7.8 0.4 0  8 0.4 0  8.199999999999999 0.4 0  8.4 0.4 0  8.6 0.4 0  8.800000000000001 0.4 0  9 0.4 0  9.199999999999999 0.4 0  9.4 0.4 0  9.6 0.4 0  9.800000000000001 0.4 0  10 0.4 0  0 0.6 0  0.2 0.6 0  0.4 0.6 0  0.6 0.6 0  0.8 0.6 0  1 0.6 0  1.2 0.6 0  1.4 0.6 0  1.6 0.6 0  1.8 0.6 0  2 0.6 0  2.2 0.6 0  2.4 0.6 0  2.6 0.6 0  2.8 0.6 0  3 0.6 0  3.2 0.6 0  3.4 0.6 0  3.6 0.6 0  3.8 0.6 0  4 0.6 0  4.2 0.6 0  4.4 0.6 0  4.6 0.6 0  4.8 0.6 0  5 0.6 0  5.2 0.6 0  5.4 0.6 0  5.6 0.6 0  5.8 0.6 0  6 0.6 0  6.2 0.6 0  6.4 0.6 0  6.6 0.6 0  6.8 0.6 0  7 0.6 0  7.2 0.6 0  7.4 0.6 0  7.6 0.6 0  7.8 0.6 0  8 0.6 0  8.199999999999999 0.6 0  8.4 0.6 0  8.6 0.6 0  8.800000000000001 0.6 0  9 0.6 0  9.199999999999999 0.6 0  9.4 0.6 0  9.6 0.6 0  9.800000000000001 0.6 0  10 0.6 0  0 0.8 0  0.2 0.8 0  0.4 0.8 0  0.6 0.8 0  0.8 0.8 0  1 0.8 0  1.2 0.8 0  1.4 0.8 0  1.6 0.8 0  1.8 0.8 0  2 0.8 0  2.2 0.8 0  2.4 0.8 0  2.6 0.8 0  2.8 0.8 0  3 0.8 0  3.2 0.8 0  3.4 0.8 0  3.6 0.8 0  3.8 0.8 0  4 0.8 0  4.2 0.8 0  4.4 0.8 0  4.6 0.8 0  4.8 0.8 0  5 0.8 0  5.2 0.8 0  5.4 0.8 0  5.6 0.8 0  5.8 0.8 0  6 0.8 0  6.2 0.8 0  6.4 0.8 0  6.6 0.8 0  6.8 0.8 0  7 0.8 0  7.2 0.8 0  7.4 0.8 0  7.6 0.8 0  7.8 0.8 0  8 0.8 0  8.199999999999999 0.8 0  8.4 0.8 0  8.6 0.8 0  8.800000000000001 0.8 0  9 0.8 0  9.199999999999999 0.8 0  9.4 0.8 0  9.6 0.8 0  9.800000000000001 0.8 0  10 0.8 0  0 1 0  0.2 1 0  0.4 1 0  0.6 1 0  0.8 1 0  1 1 0  1.2 1 0  1.4 1 0  1.6 1 0  1.8 1 0  2 1 0  2.2 1 0  2.4 1 0  2.6 1 0  2.8 1 0  3 1 0  3.2 1 0  3.4 1 0  3.6 1 0  3.8 1 0  4 1 0  4.2 1 0  4.4 1 0  4.6 1 0  4.8 1 0  5 1 0  5.2 1 0  5.4 1 0  5.6 1 0  5.8 1 0  6 1 0  6.2 1 0  6.4 1 0  6.6 1 0  6.8 1 0  7 1 0  7.2 1 0  7.4 1 0  7.6 1 0  7.8 1 0  8 1 0  8.199999999999999 1 0  8.4 1 0  8.6 1 0  8.800000000000001 1 0  9 1 0  9.199999999999999 1 0  9.4 1 0  9.6 1 0  9.800000000000001 1 0  10 1 0  0 1.2 0  0.2 1.2 0  0.4 1.2 0  0.6 1.2 0  0.8 1.2 0  1 1.2 0  1.2 1.2 0  1.4 1.2 0  1.6 1.2 0  1.8 1.2 0  2 1.2 0  2.2 1.2 0  2.4 1.2 0  2.6 1.2 0  2.8 1.2 0  3 1.2 0  3.2 1.2 0  3.4 1.2 0  3.6 1.2 0  3.8 1.2 0  4 1.2 0  4.2 1.2 0  4.4 1.2 0  4.6 1.2 0  4.8 1.2 0  5 1.2 0  5.2 1.2 0  5.4 1.2 0  5.6 1.2 0  5.8 1.2 0  6 1.2 0  6.2 1.2 0  6.4 1.2 0  6.6 1.2 0  6.8 1.2 0  7 1.2 0  7.2 1.2 0  7.4 1.2 0  7.6 1.2 0  7.8 1.2 0  8 1.2 0  8.199999999999999 1.2 0  8.4 1.2 0  8.6 1.2 0  8.800000000000001 1.2 0  9 1.2 0  9.199999999999999 1.2 0  9.4 1.2 0  9.6 1.2 0  9.800000000000001 1.2 0  10 1.2 0  0 1.4 0  0.2 1.4 0  0.4 1.4 0  0.6 1.4 0  0.8 1.4 0  1 1.4 0  1.2 1.4 0  1.4 1.4 0  1.6 1.4 0  1.8 1.4 0  2 1.4 0  2.2 1.4 0  2.4 1.4 0  2.6 1.4 0  2.8 1.4 0  3 1.4 0  3.2 1.4 0  3.4 1.4 0  3.6 1.4 0  3.8 1.4 0  4 1.4 0  4.2 1.4 0  4.4 1.4 0  4.6 1.4 0  4.8 1.4 0  5 1.4 0  5.2 1.4 0  5.4 1.4 0  5.6 1.4 0  5.8 1.4 0  6 1.4 0  6.2 1.4 0  6.4 1.4 0  6.6 1.4 0  6.8 1.4 0  7 1.4 0  7.2 1.4 0  7.4 1.4 0  7.6 1.4 0  7.8 1.4 0  8 1.4 0  8.199999999999999 1.4 0  8.4 1.4 0  8.6 1.4 0  8.800000000000001 1.4 0  9 1.4 0  9.199999999999999 1.4 0  9.4 1.4 0  9.6 1.4 0  9.800000000000001 1.4 0  10 1.4 0  0 1.6 0  0.2 1.6 0  0.4 1.6 0  0.6 1.6 0  0.8 1.6 0  1 1.6 0  1.2 1.6 0  1.4 1.6 0  1.6 1.6 0  1.8 1.6 0  2 1.6 0  2.2 1.6 0  2.4 1.6 0  2.6 1.6 0  2.8 1.6 0  3 1.6 0  3.2 1.6 0  3.4 1.6 0  3.6 1.6 0  3.8 1.6 0  4 1.6 0  4.2 1.6 0  4.4 1.6 0  4.6 1.6 0  4.8 1.6 0  5 1.6 0  5.2 1.6 0  5.4 1.6 0  5.6 1.6 0  5.8 1.6 0  6 1.6 0  6.2 1.6 0  6.4 1.6 0  6.6 1.6 0  6.8 1.6 0  7 1.6 0  7.2 1.6 0  7.4 1.6 0  7.6 1.6 0  7.8 1.6 0  8 1.6 0  8.199999999999999 1.6 0  8.4 1.6 0  8.6 1.6 0  8.800000000000001 1.6 0  9 1.6 0  9.199999999999999 1.6 0  9.4 1.6 0  9.6 1.6 0  9.800000000000001 1.6 0  10 1.6 0  0 1.8 0  0.2 1.8 0  0.4 1.8 0  0.6 1.8 0  0.8 1.8 0  1 1.8 0  1.2 1.8 0  1.4 1.8 0  1.6 1.8 0  1.8 1.8 0  2 1.8 0  2.2 1.8 0  2.4 1.8 0  2.6 1.8 0  2.8 1.8 0  3 1.8 0  3.2 1.8 0  3.4 1.8 0  3.6 1.8 0  3.8 1.8 0  4 1.8 0  4.2 1.8 0  4.4 1.8 0  4.6 1.8 0  4.8 1.8 0  5 1.8 0  5.2 1.8 0  5.4 1.8 0  5.6 1.8 0  5.8 1.8 0  6 1.8 0  6.2 1.8 0  6.4 1.8 0  6.6 1.8 0  6.8 1.8 0  7 1.8 0  7.2 1.8 0  7.4 1.8 0  7.6 1.8 0  7.8 1.8 0  8 1.8 0  8.199999999999999 1.8 0  8.4 1.8 0  8.6 1.8 0  8.800000000000001 1.8 0  9 1.8 0  9.199999999999999 1.8 0  9.4 1.8 0  9.6 1.8 0  9.800000000000001 1.8 0  10 1.8 0  0 2 0  0.2 2 0  0.4 2 0  0.6 2 0  0.8 2 0  1 2 0  1.2 2 0  1.4 2 0  1.6 2 0  1.8 2 0  2 2 0  2.2 2 0  2.4 2 0  2.6 2 0  2.8 2 0  3 2 0  3.2 2 0  3.4 2 0  3.6 2 0  3.8 2 0  4 2 0  4.2 2 0  4.4 2 0  4.6 2 0  4.8 2 0  5 2 0  5.2 2 0  5.4 2 0  5.6 2 0  5.8 2 0  6 2 0  6.2 2 0  6.4 2 0  6.6 2 0  6.8 2 0  7 2 0  7.2 2 0  7.4 2 0  7.6 2 0  7.8 2 0  8 2 0  8.199999999999999 2 0  8.4 2 0  8.6 2 0  8.800000000000001 2 0  9 2 0  9.199999999999999 2 0  9.4 2 0  9.6 2 0  9.800000000000001 2 0  10 2 0  0 2.2 0  0.2 2.2 0  0.4 2.2 0  0.6 2.2 0  0.8 2.2 0  1 2.2 0  1.2 2.2 0  1.4 2.2 0  1.6 2.2 0  1.8 2.2 0  2 2.2 0  2.2 2.2 0  2.4 2.2 0  2.6 2.2 0  2.8 2.2 0  3 2.2 0  3.2 2.2 0  3.4 2.2 0  3.6 2.2 0  3.8 2.2 0  4 2.2 0  4.2 2.2 0  4.4 2.2 0  4.6 2.2 0  4.8 2.2 0  5 2.2 0  5.2 2.2 0  5.4 2.2 0  5.6 2.2 0  5.8 2.2 0  6 2.2 0  6.2 2.2 0  6.4 2.2 0  6.6 2.2 0  6.8 2.2 0  7 2.2 0  7.2 2.2 0  7.4 2.2 0  7.6 2.2 0  7.8 2.2 0  8 2.2 0  8.199999999999999 2.2 0  8.4 2.2 0  8.6 2.2 0  8.800000000000001 2.2 0  9 2.2 0  9.199999999999999 2.2 0  9.4 2.2 0  9.6 2.2 0  9.800000000000001 2.2 0  10 2.2 0  0 2.4 0  0.2 2.4 0  0.4 2.4 0  0.6 2.4 0  0.8 2.4 0  1 2.4 0  1.2 2.4 0  1.4 2.4 0  1.6 2.4 0  1.8 2.4 0  2 2.4 0  2.2 2.4 0  2.4 2.4 0  2.6 2.4 0  2.8 2.4 0  3 2.4 0  3.2 2.4 0  3.4 2.4 0  3.6 2.4 0  3.8 2.4 0  4 2.4 0  4.2 2.4 0  4.4 2.4 0  4.6 2.4 0  4.8 2.4 0  5 2.4 0  5.2 2.4 0  5.4 2.4 0  5.6 2.4 0  5.8 2.4 0  6 2.4 0  6.2 2.4 0  6.4 2.4 0  6.6 2.4 0  6.8 2.4 0  7 2.4 0  7.2 2.4 0  7.4 2.4 0  7.6 2.4 0  7.8 2.4 0  8 2.4 0  8.199999999999999 2.4 0  8.4 2.4 0  8.6 2.4 0  8.800000000000001 2.4 0  9 2.4 0  9.199999999999999 2.4 0  9.4 2.4 0  9.6 2.4 0  9.800000000000001 2.4 0  10 2.4 0  0 2.6 0  0.2 2.6 0  0.4 2.6 0  0.6 2.6 0  0.8 2.6 0  1 2.6 0  1.2 2.6 0  1.4 2.6 0  1.6 2.6 0  1.8 2.6 0  2 2.6 0  2.2 2.6 0  2.4 2.6 0  2.6 2.6 0  2.8 2.6 0  3 2.6 0  3.2 2.6 0  3.4 2.6 0  3.6 2.6 0  3.8 2.6 0  4 2.6 0  4.2 2.6 0  4.4 2.6 0  4.6 2.6 0  4.8 2.6 0  5 2.6 0  5.2 2.6 0  5.4 2.6 0  5.6 2.6 0  5.8 2.6 0  6 2.6 0  6.2 2.6 0  6.4 2.6 0  6.6 2.6 0  6.8 2.6 0  7 2.6 0  7.2 2.6 0  7.4 2.6 0  7.6 2.6 0  7.8 2.6 0  8 2.6 0  8.199999999999999 2.6 0  8.4 2.6 0  8.6 2.6 0  8.800000000000001 2.6 0  9 2.6 0  9.199999999999999 2.6 0  9.4 2.6 0  9.6 2.6 0  9.800000000000001 2.6 0  10 2.6 0  0 2.8 0  0.2 2.8 0  0.4 2.8 0  0.6 2.8 0  0.8 2.8 0  1 2.8 0  1.2 2.8 0  1.4 2.8 0  1.6 2.8 0  1.8 2.8 0  2 2.8 0  2.2 2.8 0  2.4 2.8 0  2.6 2.8 0  2.8 2.8 0  3 2.8 0  3.2 2.8 0  3.4 2.8 0  3.6 2.8 0  3.8 2.8 0  4 2.8 0  4.2 2.8 0  4.4 2.8 0  4.6 2.8 0  4.8 2.8 0  5 2.8 0  5.2 2.8 0  5.4 2.8 0  5.6 2.8 0  5.8 2.8 0  6 2.8 0  6.2 2.8 0  6.4 2.8 0  6.6 2.8 0  6.8 2.8 0  7 2.8 0  7.2 2.8 0  7.4 2.8 0  7.6 2.8 0  7.8 2.8 0  8 2.8 0  8.199999999999999 2.8 0  8.4 2.8 0  8.6 2.8 0  8.800000000000001 2.8 0  9 2.8 0  9.199999999999999 2.8 0  9.4 2.8 0  9.6 2.8 0  9.800000000000001 2.8 0  10 2.8 0  0 3 0  0.2 3 0  0.4 3 0  0.6 3 0  0.8 3 0  1 3 0  1.2 3 0  1.4 3 0  1.6 3 0  1.8 3 0  2 3 0  2.2 3 0  2.4 3 0  2.6 3 0  2.8 3 0  3 3 0  3.2 3 0  3.4 3 0  3.6 3 0  3.8 3 0  4 3 0  4.2 3 0  4.4 3 0  4.6 3 0  4.8 3 0  5 3 0  5.2 3 0  5.4 3 0  5.6 3 0  5.8 3 0  6 3 0  6.2 3 0  6.4 3 0  6.6 3 0  6.8 3 0  7 3 0  7.2 3 0  7.4 3 0  7.6 3 0  7.8 3 0  8 3 0  8.199999999999999 3 0  8.4 3 0  8.6 3 0  8.800000000000001 3 0  9 3 0  9.199999999999999 3 0  9.4 3 0  9.6 3 0  9.800000000000001 3 0  10 3 0  0 3.2 0  0.2 3.2 0  0.4 3.2 0  0.6 3.2 0  0.8 3.2 0  1 3.2 0  1.2 3.2 0  1.4 3.2 0  1.6 3.2 0  1.8 3.2 0  2 3.2 0  2.2 3.2 0  2.4 3.2 0  2.6 3.2 0  2.8 3.2 0  3 3.2 0  3.2 3.2 0  3.4 3.2 0  3.6 3.2 0  3.8 3.2 0  4 3.2 0  4.2 3.2 0  4.4 3.2 0  4.6 3.2 0  4.8 3.2 0  5 3.2 0  5.2 3.2 0  5.4 3.2 0  5.6 3.2 0  5.8 3.2 0  6 3.2 0  6.2 3.2 0  6.4 3.2 0  6.6 3.2 0  6.8 3.2 0  7 3.2 0  7.2 3.2 0  7.4 3.2 0  7.6 3.2 0  7.8 3.2 0  8 3.2 0  8.199999999999999 3.2 0  8.4 3.2 0  8.6 3.2 0  8.800000000000001 3.2 0  9 3.2 0  9.199999999999999 3.2 0  9.4 3.2 0  9.6 3.2 0  9.800000000000001 3.2 0  10 3.2 0  0 3.4 0  0.2 3.4 0  0.4 3.4 0  0.6 3.4 0  0.8 3.4 0  1 
[...]
<PointData  Scalars="f_14"> 
<DataArray  type="Float64"  Name="f_14"  format="ascii">9.4589744070371096e-01  9.4214405012511915e-01  9.3249663562766905e-01  9.1905071298171570e-01  9.0338063015217518e-01  8.8660699254967279e-01  8.6951990789646316e-01  8.5267771850053398e-01  8.3647651239220711e-01  8.2119674423441835e-01  8.0703390499005589e-01  7.9411821523127180e-01  7.8252704442487508e-01  7.7229281776300129e-01  7.6340851678003385e-01  7.5583234586224379e-01  7.4949263521215737e-01  7.4429356081846487e-01  7.4012181304962466e-01  7.3685398956757009e-01  7.3436426849108916e-01  7.3253184660653903e-01  7.3124768151834696e-01  7.3042020707573452e-01  7.2997984219299283e-01  7.2988223824768006e-01  7.3011028352533247e-01  7.3067490052780804e-01  7.3161464730167458e-01  7.3299409275947691e-01  7.3490090814069331e-01  7.3744162933440438e-01  7.4073611455455801e-01  7.4491084819683262e-01  7.5009140156679055e-01  7.5639450948584053e-01  7.6392030019314205e-01  7.7274516973873975e-01  7.8291559002405053e-01  7.9444278762149856e-01  8.0729776925611940e-01  8.2140565462623893e-01  8.3663774545711034e-01  8.5279919929316594e-01  8.6960950557921346e-01  8.8667201801961892e-01  9.0342753267036235e-01  9.1908495148210578e-01  9.3252269449015179e-01  9.4216557811009827e-01  9.4591750672207164e-01  9.4214530028651877e-01  9.4054259813204377e-01  9.3413597814438787e-01  9.2361380272358917e-01  9.1035418243149446e-01  8.9552634911567386e-01  8.8001061639086064e-01  8.6444819718753541e-01  8.4930033494702484e-01  8.3489587261335552e-01  8.2146536241098655e-01  8.0916430812202822e-01  7.9808853570377492e-01  7.8828436543778613e-01  7.7975576936968394e-01  7.7247019105211678e-01  7.6636419431100045e-01  7.6134960618709369e-01  7.5732036343210307e-01  7.5415991153850914e-01  7.5174877914946781e-01  7.4997186891592149e-01  7.4872504548605623e-01  7.4792071594744514e-01  7.4749223471572768e-01  7.4739707980381198e-01  7.4761881545885345e-01  7.4816787275296193e-01  7.4908115741353187e-01  7.5042045656386425e-01  7.5226959090193579e-01  7.5473027122494374e-01  7.5791668334903639e-01  7.6194894208289843e-01  7.6694570059427725e-01  7.7301633330941599e-01  7.8025317314213993e-01  7.8872422547471066e-01  7.9846657171367097e-01  8.0948031835797141e-01  8.2172248005558113e-01  8.3509965977893164e-01  8.4945785038075938e-01  8.6456715010627772e-01  8.8009868018123683e-01  8.9559066701698620e-01  9.1040106302373069e-01  9.2364858222008606e-01  9.3416302101993753e-01  9.4056541338941935e-01  9.4216677148756034e-01  9.3250168736075334e-01  9.3413979770527500e-01  9.3393617154057151e-01  9.2969728425294806e-01  9.2191883606308667e-01  9.1165483651319490e-01  8.9989688945012358e-01  8.8743785493980420e-01  8.7487393228288501e-01  8.6263949813000951e-01  8.5104323709004914e-01  8.4029728426225536e-01  8.3053866075211547e-01  8.2184452961046583e-01  8.1424323242639451e-01  8.0772285995993720e-01  8.0223868212519278e-01  7.9772027932952660e-01  7.9407876533351762e-01  7.9121412951617409e-01  7.8902248872101277e-01  7.8740293276182394e-01  7.8626365239811380e-01  7.8552711425109800e-01  7.8513414838823858e-01  7.8504690324124227e-01  7.8525067653048486e-01  7.8575464458092070e-01  7.8659149507730919e-01  7.8781593872941325e-01  7.8950205597333223e-01  7.9173944575174238e-01  7.9462819604054757e-01  7.9827278737559160e-01  8.0277515067689798e-01  8.0822719169810076e-01  8.1470311901101811e-01  8.2225182601840396e-01  8.3088935334933289e-01  8.4059109821941969e-01  8.5128297525091745e-01  8.6283022954788924e-01  8.7502215021736562e-01  8.8755070403849723e-01  8.9998152836789513e-01  9.1171796566080809e-01  9.2196638962662514e-01  9.2973426662335823e-01  9.3396661403383652e-01  9.3416681743294860e-01  9.3252765361842027e-01  9.1906266171441175e-01  9.2362459769263205e-01  9.2970437124866379e-01  9.3248131800622880e-01  9.3121469465377793e-01  9.2658027361792128e-01  9.1956520213343718e-01  9.1108126492262675e-01  9.0186164222184162e-01  8.9245916111157175e-01  8.8327445960892603e-01  8.7458776296374752e-01  8.6658594799372701e-01  8.5938345715172459e-01  8.5303800451627010e-01  8.4756258753608726e-01  8.4293518692709291e-01  8.3910716487353809e-01  8.3601096237631689e-01  8.3356734667642496e-01  8.3169221284588446e-01  8.3030280920592647e-01  8.2932321833420941e-01  8.2868895267846721e-01  8.2835058033390274e-01  8.2827635178163972e-01  8.2845383313197896e-01  8.2889055960735791e-01  8.2961370994938399e-01  8.3066878102819186e-01  8.3211722796065979e-01  8.3403304227200514e-01  8.3649827593288617e-01  8.3959757819462100e-01  8.4341187714425936e-01  8.4801137824916994e-01  8.5344803015516890e-01  8.5974748865996986e-01  8.6690037284385946e-01  8.7485225858417071e-01  8.8349143669884445e-01  8.9263307426252658e-01  9.0199826652213255e-01  9.1118702091422732e-01  9.1964658397887999e-01  9.2664340491355102e-01  9.3126501086717817e-01  9.3252335999286207e-01  9.2974167443582123e-01  9.2365967719043407e-01  9.1909711494513735e-01  9.0340403233588229e-01  9.1037657747124401e-01  9.2193773194270279e-01  9.3122655912139496e-01  9.3630792070483249e-01  9.3734851150858334e-01  9.3521703929427447e-01  9.3087894265497573e-01  9.2517431338919787e-01  9.1876322548955369e-01  9.1213556034163701e-01  9.0564007253324741e-01  8.9951470849881809e-01  8.9391229640467396e-01  8.8892070273303880e-01  8.8457831957586763e-01  8.8088613871894006e-01  8.7781751822228160e-01  8.7532642939650895e-01  8.7335465373762500e-01  8.7183815013348709e-01  8.7071265239111495e-01  8.6991847808129608e-01  8.6940450961521420e-01  8.6913132068087173e-01  8.6907344216098414e-01  8.6922077568678147e-01  8.6957916355798981e-01  8.7017011256531585e-01  8.7102965349964956e-01  8.7220630713158565e-01  8.7375812892446658e-01  8.7574882127824460e-01  8.7824292814071347e-01  8.8130014717049465e-01  8.8496878542988056e-01  8.8927831760277820e-01  8.9423085613209352e-01  8.9979109971786864e-01  9.0587400796661610e-01  9.1232912472322947e-01  9.1892030924248169e-01  9.2530001114604388e-01  9.3097897994968459e-01  9.3529726808326807e-01  9.3741449032656965e-01  9.3636457563976294e-01  9.3127791472085930e-01  9.2198671296732426e-01  9.1042491195151298e-01  9.0345229945048677e-01  8.8664927780514446e-01  8.9556780641621758e-01  9.1169295655065574e-01  9.2661119424533300e-01  9.3736720849099708e-01  9.4360946671910106e-01  9.4602778951899780e-01  9.4558798886176154e-01  9.4320294466738841e-01  9.3962124579975892e-01  9.3541270005618693e-01  9.3099026046557043e-01  9.2664094429711896e-01  9.2255486541493614e-01  9.1884911863941865e-01  9.1558640726977703e-01  9.1278936725989313e-01  9.1045169830922523e-01  9.0854702724303760e-01  9.0703615985740016e-01  9.0587313347446163e-01  9.0501030189433229e-01  9.0440257034528204e-01  9.0401083721169262e-01  9.0380467302212208e-01  9.0376425778591596e-01  9.0388159245444621e-01  9.0416099230594438e-01  9.0461885817825316e-01  9.0528270823197721e-01  9.0618944223808884e-01  9.0738280497348578e-01  9.0891001423885875e-01  9.1081751575636050e-01  9.1314580883307450e-01  9.1592323490973515e-01  9.1915851591177222e-01  9.2283165568644177e-01  9.2688257704633858e-01  9.3119659595298088e-01  9.3558564269461708e-01  9.3976428615382013e-01  9.4332066762294708e-01  9.4568559239094141e-01  9.4611063840818843e-01  9.4368268464952210e-01  9.3743529819424465e-01  9.2667767942550450e-01  9.1176006994583159e-01  8.9563629930809829e-01  8.8671842090785824e-01  8.6959341717655214e-01  8.8008341788016964e-01  8.9996616475953828e-01  9.1962636318848956e-01  9.3526453964856304e-01  9.4605534609737874e-01  9.5249344716588424e-01  9.5551456011495550e-01  9.5607862170038183e-01  9.5500558557441162e-01  9.5293507332304928e-01  9.5033867998682864e-01  9.4754947977839998e-01  9.4479304998519931e-01  9.4221425660040070e-01  9.3989855593115856e-01  9.3788834453224401e-01  9.3619539537965801e-01  9.3481039049671855e-01  9.3371035186230977e-01  9.3286454018991960e-01  9.3223919626192631e-01  9.3180135771616779e-01  9.3152189087524451e-01  9.3137782011781733e-01  9.3135400324096262e-01  9.3144417953858005e-01  9.3165140092724008e-01  9.3198784195722273e-01  9.3247397101732288e-01  9.3313705243669820e-01  9.3400893656003803e-01  9.3512307869415934e-01  9.3651070079225951e-01  9.3819596053096999e-01  9.4018990693318372e-01  9.4248286645342472e-01  9.4503471262185001e-01  9.4776224075539406e-01  9.5052265767313859e-01  9.5309216195018642e-01  9.5513908666347469e-01  9.5619284469173482e-01  9.5561441841210870e-01  9.5258405555044312e-01  9.4614160587047069e-01  9.3535068962035883e-01  9.1971549337483860e-01  9.0005974861365490e-01  8.8018100223285545e-01  8.6969258353669576e-01  8.5280244769162705e-01  8.6457210885324465e-01  8.8755718278549967e-01  9.1118999448916693e-01  9.3097044867761081e-01  9.4565586036945393e-01  9.5555232454060035e-01  9.6155258509242669e-01  9.6464776079075232e-01  9.6571645320201938e-01  9.6545953784588956e-01  9.6440199921969416e-01  9.6291983841958562e-01  9.6127208891594951e-01  9.5962979389608549e-01  9.5809953467610531e-01  9.5674156767472363e-01  9.5558348550712080e-01  9.5463045410394587e-01  9.5387293489229807e-01  9.5329258435491149e-01  9.5286681897089986e-01  9.5257237083535762e-01  9.5238804150191214e-01  9.5229678162947329e-01  9.5228717164211518e-01  9.5235434417103693e-01  9.5250036498249646e-01  9.5273407030465029e-01  9.5307034179636607e-01  9.5352878349291970e-01  9.5413174486395247e-01  9.5490160550345082e-01  9.5585719196326357e-01  9.5700912525890747e-01  9.5835378713557562e-01  9.5986543580260164e-01  9.6148579986579574e-01  9.6311026134447142e-01  9.6456959135204079e-01  9.6560633125338413e-01  9.6584576136352263e-01  9.6476385787810959e-01  9.6166036631645890e-01  9.5565693225442194e-01  9.4576223913210333e-01  9.3108278843150094e-01  9.1131105868529072e-01  8.8768761828193665e-01  8.6470996857077975e-01  8.5294311369952758e-01  8.3668354497758768e-01  8.4950592956141691e-01  8.7507220949758513e-01  9.0204405991448877e-01  9.2533237341944430e-01  9.4332969647226772e-01  9.5616862288352844e-01  9.6469593619527139e-01  9.6992516566582521e-01  9.7278485165856921e-01  9.7403041770686161e-01  9.7423564182920708e-01  9.7381642907375510e-01  9.7306318633780309e-01  9.7217146702790991e-01  9.7126736246689638e-01  9.7042721706031343e-01  9.6969243566589158e-01  9.6908044629366386e-01  9.6859280259363911e-01  9.6822121036943554e-01  9.6795205197250078e-01  9.6776980461748552e-01  9.6765961420581703e-01  9.6760919183572769e-01  9.6761013687367214e-01  9.6765874797601870e-01  9.6775635262387127e-01  9.6790915994720339e-01  9.6812761698152305e-01  9.6842522271877407e-01  9.6881672458287027e-01  9.6931558296338460e-01  9.6993053247168115e-01  9.7066098242526000e-01  9.7149087279934798e-01  9.7238043003983798e-01  9.7325505901769915e-01  9.7399040534025849e-01  9.7439253811978943e-01  9.7417248995300310e-01  9.7291557272864826e-01  9.7004897779276811e-01  9.6481796866402525e-01  9.5629433450355006e-01  9.4346437479890422e-01  9.2548042066152969e-01  9.0220805677238669e-01  8.7525190601934821e-01  8.4969752364607731e-01  8.3687955711126916e-01  8.2153221875503013e-01  8.3522835462926681e-01  8.6295907789287396e-01  8.9275315606594574e-01  9.1902023220294393e-01  9.3983334678771036e-01  9.5516837745869831e-01  9.6582764928788978e-01  9.7284234820706073e-01  9.7718484208434275e-01  9.7965971606213154e-01  9.8088542597710082e-01  9.8131479765733787e-01  9.8126740412737323e-01  9.8096152073394882e-01  9.8054110823151319e-01  9.8009694231361233e-01  9.7968250397373435e-01  9.7932568502576722e-01  9.7903734258608954e-01  9.7881755044394991e-01  9.7866018005587818e-01  9.7855625601584817e-01  9.7849638849559983e-01  9.7847248765522499e-01  9.7847890206067845e-01  9.7851308025469874e-01  9.7857581808432215e-01  9.7867111535602169e-01  9.7880562168007468e-01  9.7898760548987274e-01  9.7922533452104199e-01  9.7952470772240763e-01  9.7988591770888744e-01  9.8029883454983235e-01  9.8073667167644119e-01  9.8114731744708916e-01  9.8144150616289527e-01  9.8147681561904954e-01  9.8103645155768060e-01  9.7980220955576980e-01  9.7732248898433471e-01  9.7297988928386037e-01  9.6597065598042231e-01  9.5532290226856942e-01  9.4000533938330388e-01  9.1921460850303471e-01  8.9297249724259242e-01  8.6320217247555386e-01  8.3548912096102201e-01  8.2179950192254692e-01  8.0756319573973390e-01  8.2198858112905648e-01  8.5154351646554283e-01  8.8373273469974201e-01  9.1253626008323285e-01  9.3574658764716800e-01  9.5319903950362694e-01  9.6565459733623815e-01  9.7415920168185943e-01  9.7972423801006847e-01  9.8319871400996017e-01  9.8524180607094136e-01  9.8634015846484269e-01  9.8684007975155907e-01  9.8698057195885391e-01  9.8692171071253865e-01  9.8676707177466361e-01  9.8658066829968871e-01  9.8639943097914895e-01  9.8624229019776433e-01  9.8611674106791658e-01  9.8602354987090313e-01  9.8596006660794377e-01  9.8592247045971482e-01  9.8590719413350292e-01  9.8591173268229826e-01  9.8593501544685702e-01  9.8597747983696971e-01  9.8604091859918497e-01  9.8612808249361028e-01  9.8624192657032428e-01  9.8638430981766267e-01  9.8655390073653126e-01  9.8674299215940886e-01  9.8693286088528964e-01  9.8708719500850639e-01  9.8714294270142400e-01  9.8699772912243544e-01  9.8649281286536328e-01  9.8539057310144895e-01  9.8334607287503795e-01  9.7987399620795990e-01  9.7431641579732109e-01  9.6582541211492801e-01  9.5339034063838790e-01  9.3596530648773335e-01  9.1278815842790217e-01  8.8402061968059331e-01  8.5186517301155751e-01  8.2233518892014001e-01  8.0791899181858795e-01  7.9492984138312317e-01  8.0996449265204018e-01  8.4105800453310653e-01  8.7528059150468396e-01  9.0624379727050197e-01  9.3149414208558778e-01  9.5074152410453594e-01  9.6470905178114985e-01  9.7445514477381512e-01  9.8102582211860623e-01  9.8530989408156400e-01  9.8800316819535139e-01  9.8962272213454483e-01  9.9053883067028725e-01  9.9100890652810247e-01  9.9120713888609846e-01  9.9124814543041040e-01  9.9120496404977387e-01  9.9112238504199102e-01  9.9102668189960597e-01  9.9093261267677990e-01  9.9084832380763965e-01  9.9077858929652585e-01  9.9072670391918582e-01  9.9069532383616299e-01  9.9068657951457828e-01  9.9070181467945373e-01  9.9074126995256306e-01  9.9080390113898020e-01  9.9088732183232031e-01  9.9098765136482581e-01  9.9109889841831655e-01  9.9121144677086714e-01  9.9130920887178797e-01  9.9136501590674864e-01  9.9133375977359317e-01  9.9114266391796135e-01  9.9067785797556063e-01  9.8976625557738385e-01  9.8815178090346167e-01  9.8546564172105366e-01  9.8119232997207895e-01  9.7463763540577686e-01  9.6491425395839581e-01  9.5097732169808935e-01  9.3176873762762102e-01  9.0656414069450453e-01  8.7564998024240470e-01  8.4147322247657175e-01  8.1041353810743411e-01  7.9539136586019044e-01  7.8373571075011572e-01  7.9927718234804324e-01  8.3166242180787064e-01  8.6760323537539141e-01  9.0039701457984189e-01  9.2737609982132330e-01  9.4813928827598870e-01  9.6337520004228572e-01  9.7415249859241160e-01  9.8154739204594532e-01  9.8648366315620095e-01  9.8968932299763868e-01  9.9170807287458274e-01  9.9293091432054625e-01  9.9363087613681944e-01  9.9399381036459866e-01  9.9414324684854538e-01  9.9415951658168877e-01  9.9409411036245354e-01  9.9398029834658930e-01  9.9384080884916670e-01  9.9369307576703536e-01  9.9355234800942971e-01  9.9343289150305747e-01  9.9334762276672939e-01  9.9330672900889794e-01  9.9331601460280838e-01  9.9337571306469585e-01  9.9348023959113896e-01  9.9361889516227464e-01  9.9377704968125691e-01  9.9393701893920861e-01  9.9407779381473793e-01  9.9417292119240530e-01  9.9418602533349132e-01  9.9406355133704827e-01  9.9372424072432031e-01  9.9304464464382780e-01  9.9183977234274356e-01  9.8983800633673358e-01  9.8665012711474420e-01  9.8173446307012036e-01  9.7436517493698382e-01  9.6362062618780142e-01  9.4842638550676783e-01  9.2771455520340418e-01  9.0079528226805938e-01  8.6806539167307184e-01  8.3218431962904216e-01  7.9984328446661934e-01  7.8431818026299949e-01  7.7404097802148608e-01  7.8999970015350074e-01  8.2345802048228833e-01  8.6083570953157762e-01  8.9516571051284921e-01  9.2359623548567460e-01  9.4562878022484154e-01  9.6192067912178914e-01  9.7354842157138399e-01  9.8161368617829448e-01  9.8707002452675396e-01  9.9067275919827258e-01  9.9298785621028707e-01  9.9442317294007609e-01  9.9526385065932277e-01  9.9570418655458515e-01  9.9587371999612895e-01  9.9585767105742362e-01  9.9571267759325699e-01  9.9547879181868004e-01  9.9518836009508416e-01  9.9487199248306635e-01  9.9456154281227560e-01  9.9429003720217024e-01  9.9408888255239813e-01  9.9398334254773080e-01  9.9398786349914314e-01  9.9410296353157446e-01  9.9431484139433279e-01  9.9459776997800098e-01  9.9491819984055085e-01  9.9523882423114207e-01  9.9552086794490457e-01  9.9572338505141189e-01  9.9579899269389982e-01  9.9568588146997106e-01  9.9529598625564542e-01  9.9449895009083789e-01  9.9310119222745052e-01  9.9081933481424234e-01  9.8724795363401185e-01  9.8182393303149251e-01  9.7379503458217087e-01  9.6221079759118544e-01  9.4597221144019272e-01  9.2400422721109543e-01  8.9564845880777377e-01  8.6139835461416936e-01  8.2409564193364115e-01  7.9069304861454404e-01  7.7475506144921391e-01  7.6586596909541882e-01  7.8216232252546025e-01  8.1649678388310509e-01  8.5505589477752830e-01  8.9065434583302983e-01  9.2028501713473110e-01  9.4336554174270082e-01  9.6052500417855791e-01  9.7284508307245088e-01  9.8144788885836887e-01  9.8731111504125335e-01  9.9121196857603788e-01  9.9373364970932687e-01  9.9529615773939462e-01  9.9619219534720371e-01  9.9662002501856750e-01  9.9671086176737644e-01  9.9655095647752212e-01  9.9619935671512916e-01  9.9570223243510869e-01  9.9510407372265108e-01  9.9445533663352004e-01  9.9381558987934393e-01  9.9325129680704138e-01  9.9282831854672859e-01  9.9260088990908046e-01  9.9260046327870588e-01  9.9282838402251894e-01  9.9325518178187600e-01  9.9382667671491953e-01  9.9447438899193918e-01  9.9512626861471876e-01  9.9571405411965208e-01  9.9617508693412582e-01  9.9644810993766875e-01  9.9646364407715293e-01  9.9612972278486700e-01  9.9531331208519758e-01  9.9381711448064736e-01  9.9135115582450772e-01  9.8749917460013747e-01  9.8168224032760809e-01  9.7312765066414630e-01  9.6086216482245801e-01  9.4376757372462472e-01  9.2076459743182870e-01  8.9122350795323113e-01  8.5572108538151459e-01  8.1725256933005375e-01  7.8298584012411032e-01  7.6671483174106814e-01  7.5919361141960118e-01  7.7575625174773688e-01  8.1078812425592039e-01  8.5029496807200056e-01  8.8691629893569068e-01  9.1751728048225856e-01  9.4144477410203031e-01  9.5930251588041393e-01  9.7217456980358885e-01  9.8119816789780856e-01  9.8736911466443400e-01  9.9148049955796624e-01  9.9412691919857132e-01  9.9573467787947334e-01  9.9659795863720946e-01  9.9691250131758613e-01  9.9680437982082470e-01  9.9635422387851125e-01  9.9561808344060809e-01  9.9464583455819089e-01  9.9349696892364681e-01  9.9225216294035401e-01  9.9101780255970473e-01  9.8992056978911036e-01  9.8909112937283516e-01  9.8863986129858528e-01  9.8863187161713051e-01  9.8907043873936895e-01  9.8989559186267051e-01  9.9099835160014049e-01  9.9224466688789459e-01  9.9349987281886487e-01  9.9464576322905351e-01  9.9558644561819698e-01  9.9624325538349801e-01  9.9654129518408652e-01  9.9639036630101863e-01  9.9566196080714797e-01  9.9416261198491818e-01  9.9160308381765061e-01  9.8756328992752707e-01  9.8145530228766220e-01  9.7249271687886574e-01  9.5968611290020978e-01  9.4190382089249070e-01  9.1806547414275741e-01  8.8756739743370416e-01  8.5105687994019141e-01  8.1165527391263714e-01  7.7670263311640197e-01  7.6016982721423554e-01  7.5397218711282432e-01  7.7073720941503843e-01  8.0630449878436394e-01  8.4654559775726357e-01  8.8396474402568459e-01  9.1532562380122706e-01  9.3991696714053952e-01  9.5831994672930099e-01  9.7161812800552327e-01  9.8095837883289294e-01  9.8734823661567062e-01  9.9159007235540408e-01  9.9428307931373339e-01  9.9585255393639538e