<?xml version="1.0"?>
<VTKFile type="UnstructuredGrid"  version="0.1"  >
<UnstructuredGrid>
<Piece  NumberOfPoints="5101" NumberOfCells="10000">
<Points>
<DataArray  type="Float64"  NumberOfComponents="3"  format="ascii">0 0 0  0.2 0 0  0.4 0 0  0.6 0 0  0.8 0 0  1 0 0  1.2 0 0  1.4 0 0  1.6 0 0  1.8 0 0  2 0 0  2.2 0 0  2.4 0 0  2.6 0 0  2.8 0 0  3 0 0  3.2 0 0  3.4 0 0  3.6 0 0  3.8 0 0  4 0 0  4.2 0 0  4.4 0 0  4.6 0 0  4.8 0 0  5 0 0  5.2 0 0  5.4 0 0  5.6 0 0  5.8 0 0  6 0 0  6.2 0 0  6.4 0 0  6.6 0 0  6.8 0 0  7 0 0  7.2 0 0  7.4 0 0  7.6 0 0  7.8 0 0  8 0 0  8.199999999999999 0 0  8.4 0 0  8.6 0 0  8.800000000000001 0 0  9 0 0  9.199999999999999 0 0  9.4 0 0  9.6 0 0  9.800000000000001 0 0  10 0 0  0 0.2 0  0.2 0.2 0  0.4 0.2 0  0.6 0.2 0  0.8 0.2 0  1 0.2 0  1.2 0.2 0  1.4 0.2 0  1.6 0.2 0  1.8 0.2 0  2 0.2 0  2.2 0.2 0  2.4 0.2 0  2.6 0.2 0  2.8 0.2 0  3 0.2 0  3.2 0.2 0  3.4 0.2 0  3.6 0.2 0  3.8 0.2 0  4 0.2 0  4.2 0.2 0  4.4 0.2 0  4.6 0.2 0  4.8 0.2 0  5 0.2 0  5.2 0.2 0  5.4 0.2 0  5.6 0.2 0  5.8 0.2 0  6 0.2 0  6.2 0.2 0  6.4 0.2 0  6.6 0.2 0  6.8 0.2 0  7 0.2 0  7.2 0.2 0  7.4 0.2 0  7.6 0.2 0  7.8 0.2 0  8 0.2 0  8.199999999999999 0.2 0  8.4 0.2 0  8.6 0.2 0  8.800000000000001 0.2 0  9 0.2 0  9.199999999999999 0.2 0  9.4 0.2 0  9.6 0.2 0  9.800000000000001 0.2 0  10 0.2 0  0 0.4 0  0.2 0.4 0  0.4 0.4 0  0.6 0.4 0  0.8 0.4 0  1 0.4 0  1.2 0.4 0  1.4 0.4 0  1.6 0.4 0  1.8 0.4 0  2 0.4 0  2.2 0.4 0  2.4 0.4 0  2.6 0.4 0  2.8 0.4 0  3 0.4 0  3.2 0.4 0  3.4 0.4 0  3.6 0.4 0  3.8 0.4 0  4 0.4 0  4.2 0.4 0  4.4 0.4 0  4.6 0.4 0  4.8 0.4 0  5 0.4 0  5.2 0.4 0  5.4 0.4 0  5.6 0.4 0  5.8 0.4 0  6 0.4 0  6.2 0.4 0  6.4 0.4 0  6.6 0.4 0  6.8 0.4 0  7 0.4 0  7.2 0.4 0  7.4 0.4 0  7.6 0.4 0  7.8 0.4 0  8 0.4 0  8.199999999999999 0.4 0  8.4 0.4 0  8.6 0.4 0  8.800000000000001 0.4 0  9 0.4 0  9.199999999999999 0.4 0  9.4 0.4 0  9.6 0.4 0  9.800000000000001 0.4 0  10 0.4 0  0 0.6 0  0.2 0.6 0  0.4 0.6 0  0.6 0.6 0  0.8 0.6 0  1 0.6 0  1.2 0.6 0  1.4 0.6 0  1.6 0.6 0  1.8 0.6 0  2 0.6 0  2.2 0.6 0  2.4 0.6 0  2.6 0.6 0  2.8 0.6 0  3 0.6 0  3.2 0.6 0  3.4 0.6 0  3.6 0.6 0  3.8 0.6 0  4 0.6 0  4.2 0.6 0  4.4 0.6 0  4.6 0.6 0  4.8 0.6 0  5 0.6 0  5.2 0.6 0  5.4 0.6 0  5.6 0.6 0  5.8 0.6 0  6 0.6 0  6.2 0.6 0  6.4 0.6 0  6.6 0.6 0  6.8 0.6 0  7 0.6 0  7.2 0.6 0  7.4 0.6 0  7.6 0.6 0  7.8 0.6 0  8 0.6 0  8.199999999999999 0.6 0  8.4 0.6 0  8.6 0.6 0  8.800000000000001 0.6 0  9 0.6 0  9.199999999999999 0.6 0  9.4 0.6 0  9.6 0.6 0  9.800000000000001 0.6 0  10 0.6 0  0 0.8 0  0.2 0.8 0  0.4 0.8 0  0.6 0.8 0  0.8 0.8 0  1 0.8 0  1.2 0.8 0  1.4 0.8 0  1.6 0.8 0  1.8 0.8 0  2 0.8 0  2.2 0.8 0  2.4 0.8 0  2.6 0.8 0  2.8 0.8 0  3 0.8 0  3.2 0.8 0  3.4 0.8 0  3.6 0.8 0  3.8 0.8 0  4 0.8 0  4.2 0.8 0  4.4 0.8 0  4.6 0.8 0  4.8 0.8 0  5 0.8 0  5.2 0.8 0  5.4 0.8 0  5.6 0.8 0  5.8 0.8 0  6 0.8 0  6.2 0.8 0  6.4 0.8 0  6.6 0.8 0  6.8 0.8 0  7 0.8 0  7.2 0.8 0  7.4 0.8 0  7.6 0.8 0  7.8 0.8 0  8 0.8 0  8.199999999999999 0.8 0  8.4 0.8 0  8.6 0.8 0  8.800000000000001 0.8 0  9 0.8 0  9.199999999999999 0.8 0  9.4 0.8 0  9.6 0.8 0  9.800000000000001 0.8 0  10 0.8 0  0 1 0  0.2 1 0  0.4 1 0  0.6 1 0  0.8 1 0  1 1 0  1.2 1 0  1.4 1 0  1.6 1 0  1.8 1 0  2 1 0  2.2 1 0  2.4 1 0  2.6 1 0  2.8 1 0  3 1 0  3.2 1 0  3.4 1 0  3.6 1 0  3.8 1 0  4 1 0  4.2 1 0  4.4 1 0  4.6 1 0  4.8 1 0  5 1 0  5.2 1 0  5.4 1 0  5.6 1 0  5.8 1 0  6 1 0  6.2 1 0  6.4 1 0  6.6 1 0  6.8 1 0  7 1 0  7.2 1 0  7.4 1 0  7.6 1 0  7.8 1 0  8 1 0  8.199999999999999 1 0  8.4 1 0  8.6 1 0  8.800000000000001 1 0  9 1 0  9.199999999999999 1 0  9.4 1 0  9.6 1 0  9.800000000000001 1 0  10 1 0  0 1.2 0  0.2 1.2 0  0.4 1.2 0  0.6 1.2 0  0.8 1.2 0  1 1.2 0  1.2 1.2 0  1.4 1.2 0  1.6 1.2 0  1.8 1.2 0  2 1.2 0  2.2 1.2 0  2.4 1.2 0  2.6 1.2 0  2.8 1.2 0  3 1.2 0  3.2 1.2 0  3.4 1.2 0  3.6 1.2 0  3.8 1.2 0  4 1.2 0  4.2 1.2 0  4.4 1.2 0  4.6 1.2 0  4.8 1.2 0  5 1.2 0  5.2 1.2 0  5.4 1.2 0  5.6 1.2 0  5.8 1.2 0  6 1.2 0  6.2 1.2 0  6.4 1.2 0  6.6 1.2 0  6.8 1.2 0  7 1.2 0  7.2 1.2 0  7.4 1.2 0  7.6 1.2 0  7.8 1.2 0  8 1.2 0  8.199999999999999 1.2 0  8.4 1.2 0  8.6 1.2 0  8.800000000000001 1.2 0  9 1.2 0  9.199999999999999 1.2 0  9.4 1.2 0  9.6 1.2 0  9.800000000000001 1.2 0  10 1.2 0  0 1.4 0  0.2 1.4 0  0.4 1.4 0  0.6 1.4 0  0.8 1.4 0  1 1.4 0  1.2 1.4 0  1.4 1.4 0  1.6 1.4 0  1.8 1.4 0  2 1.4 0  2.2 1.4 0  2.4 1.4 0  2.6 1.4 0  2.8 1.4 0  3 1.4 0  3.2 1.4 0  3.4 1.4 0  3.6 1.4 0  3.8 1.4 0  4 1.4 0  4.2 1.4 0  4.4 1.4 0  4.6 1.4 0  4.8 1.4 0  5 1.4 0  5.2 1.4 0  5.4 1.4 0  5.6 1.4 0  5.8 1.4 0  6 1.4 0  6.2 1.4 0  6.4 1.4 0  6.6 1.4 0  6.8 1.4 0  7 1.4 0  7.2 1.4 0  7.4 1.4 0  7.6 1.4 0  7.8 1.4 0  8 1.4 0  8.199999999999999 1.4 0  8.4 1.4 0  8.6 1.4 0  8.800000000000001 1.4 0  9 1.4 0  9.199999999999999 1.4 0  9.4 1.4 0  9.6 1.4 0  9.800000000000001 1.4 0  10 1.4 0  0 1.6 0  0.2 1.6 0  0.4 1.6 0  0.6 1.6 0  0.8 1.6 0  1 1.6 0  1.2 1.6 0  1.4 1.6 0  1.6 1.6 0  1.8 1.6 0  2 1.6 0  2.2 1.6 0  2.4 1.6 0  2.6 1.6 0  2.8 1.6 0  3 1.6 0  3.2 1.6 0  3.4 1.6 0  3.6 1.6 0  3.8 1.6 0  4 1.6 0  4.2 1.6 0  4.4 1.6 0  4.6 1.6 0  4.8 1.6 0  5 1.6 0  5.2 1.6 0  5.4 1.6 0  5.6 1.6 0  5.8 1.6 0  6 1.6 0  6.2 1.6 0  6.4 1.6 0  6.6 1.6 0  6.8 1.6 0  7 1.6 0  7.2 1.6 0  7.4 1.6 0  7.6 1.6 0  7.8 1.6 0  8 1.6 0  8.199999999999999 1.6 0  8.4 1.6 0  8.6 1.6 0  8.800000000000001 1.6 0  9 1.6 0  9.199999999999999 1.6 0  9.4 1.6 0  9.6 1.6 0  9.800000000000001 1.6 0  10 1.6 0  0 1.8 0  0.2 1.8 0  0.4 1.8 0  0.6 1.8 0  0.8 1.8 0  1 1.8 0  1.2 1.8 0  1.4 1.8 0  1.6 1.8 0  1.8 1.8 0  2 1.8 0  2.2 1.8 0  2.4 1.8 0  2.6 1.8 0  2.8 1.8 0  3 1.8 0  3.2 1.8 0  3.4 1.8 0  3.6 1.8 0  3.8 1.8 0  4 1.8 0  4.2 1.8 0  4.4 1.8 0  4.6 1.8 0  4.8 1.8 0  5 1.8 0  5.2 1.8 0  5.4 1.8 0  5.6 1.8 0  5.8 1.8 0  6 1.8 0  6.2 1.8 0  6.4 1.8 0  6.6 1.8 0  6.8 1.8 0  7 1.8 0  7.2 1.8 0  7.4 1.8 0  7.6 1.8 0  7.8 1.8 0  8 1.8 0  8.199999999999999 1.8 0  8.4 1.8 0  8.6 1.8 0  8.800000000000001 1.8 0  9 1.8 0  9.199999999999999 1.8 0  9.4 1.8 0  9.6 1.8 0  9.800000000000001 1.8 0  10 1.8 0  0 2 0  0.2 2 0  0.4 2 0  0.6 2 0  0.8 2 0  1 2 0  1.2 2 0  1.4 2 0  1.6 2 0  1.8 2 0  2 2 0  2.2 2 0  2.4 2 0  2.6 2 0  2.8 2 0  3 2 0  3.2 2 0  3.4 2 0  3.6 2 0  3.8 2 0  4 2 0  4.2 2 0  4.4 2 0  4.6 2 0  4.8 2 0  5 2 0  5.2 2 0  5.4 2 0  5.6 2 0  5.8 2 0  6 2 0  6.2 2 0  6.4 2 0  6.6 2 0  6.8 2 0  7 2 0  7.2 2 0  7.4 2 0  7.6 2 0  7.8 2 0  8 2 0  8.199999999999999 2 0  8.4 2 0  8.6 2 0  8.800000000000001 2 0  9 2 0  9.199999999999999 2 0  9.4 2 0  9.6 2 0  9.800000000000001 2 0  10 2 0  0 2.2 0  0.2 2.2 0  0.4 2.2 0  0.6 2.2 0  0.8 2.2 0  1 2.2 0  1.2 2.2 0  1.4 2.2 0  1.6 2.2 0  1.8 2.2 0  2 2.2 0  2.2 2.2 0  2.4 2.2 0  2.6 2.2 0  2.8 2.2 0  3 2.2 0  3.2 2.2 0  3.4 2.2 0  3.6 2.2 0  3.8 2.2 0  4 2.2 0  4.2 2.2 0  4.4 2.2 0  4.6 2.2 0  4.8 2.2 0  5 2.2 0  5.2 2.2 0  5.4 2.2 0  5.6 2.2 0  5.8 2.2 0  6 2.2 0  6.2 2.2 0  6.4 2.2 0  6.6 2.2 0  6.8 2.2 0  7 2.2 0  7.2 2.2 0  7.4 2.2 0  7.6 2.2 0  7.8 2.2 0  8 2.2 0  8.199999999999999 2.2 0  8.4 2.2 0  8.6 2.2 0  8.800000000000001 2.2 0  9 2.2 0  9.199999999999999 2.2 0  9.4 2.2 0  9.6 2.2 0  9.800000000000001 2.2 0  10 2.2 0  0 2.4 0  0.2 2.4 0  0.4 2.4 0  0.6 2.4 0  0.8 2.4 0  1 2.4 0  1.2 2.4 0  1.4 2.4 0  1.6 2.4 0  1.8 2.4 0  2 2.4 0  2.2 2.4 0  2.4 2.4 0  2.6 2.4 0  2.8 2.4 0  3 2.4 0  3.2 2.4 0  3.4 2.4 0  3.6 2.4 0  3.8 2.4 0  4 2.4 0  4.2 2.4 0  4.4 2.4 0  4.6 2.4 0  4.8 2.4 0  5 2.4 0  5.2 2.4 0  5.4 2.4 0  5.6 2.4 0  5.8 2.4 0  6 2.4 0  6.2 2.4 0  6.4 2.4 0  6.6 2.4 0  6.8 2.4 0  7 2.4 0  7.2 2.4 0  7.4 2.4 0  7.6 2.4 0  7.8 2.4 0  8 2.4 0  8.199999999999999 2.4 0  8.4 2.4 0  8.6 2.4 0  8.800000000000001 2.4 0  9 2.4 0  9.199999999999999 2.4 0  9.4 2.4 0  9.6 2.4 0  9.800000000000001 2.4 0  10 2.4 0  0 2.6 0  0.2 2.6 0  0.4 2.6 0  0.6 2.6 0  0.8 2.6 0  1 2.6 0  1.2 2.6 0  1.4 2.6 0  1.6 2.6 0  1.8 2.6 0  2 2.6 0  2.2 2.6 0  2.4 2.6 0  2.6 2.6 0  2.8 2.6 0  3 2.6 0  3.2 2.6 0  3.4 2.6 0  3.6 2.6 0  3.8 2.6 0  4 2.6 0  4.2 2.6 0  4.4 2.6 0  4.6 2.6 0  4.8 2.6 0  5 2.6 0  5.2 2.6 0  5.4 2.6 0  5.6 2.6 0  5.8 2.6 0  6 2.6 0  6.2 2.6 0  6.4 2.6 0  6.6 2.6 0  6.8 2.6 0  7 2.6 0  7.2 2.6 0  7.4 2.6 0  7.6 2.6 0  7.8 2.6 0  8 2.6 0  8.199999999999999 2.6 0  8.4 2.6 0  8.6 2.6 0  8.800000000000001 2.6 0  9 2.6 0  9.199999999999999 2.6 0  9.4 2.6 0  9.6 2.6 0  9.800000000000001 2.6 0  10 2.6 0  0 2.8 0  0.2 2.8 0  0.4 2.8 0  0.6 2.8 0  0.8 2.8 0  1 2.8 0  1.2 2.8 0  1.4 2.8 0  1.6 2.8 0  1.8 2.8 0  2 2.8 0  2.2 2.8 0  2.4 2.8 0  2.6 2.8 0  2.8 2.8 0  3 2.8 0  3.2 2.8 0  3.4 2.8 0  3.6 2.8 0  3.8 2.8 0  4 2.8 0  4.2 2.8 0  4.4 2.8 0  4.6 2.8 0  4.8 2.8 0  5 2.8 0  5.2 2.8 0  5.4 2.8 0  5.6 2.8 0  5.8 2.8 0  6 2.8 0  6.2 2.8 0  6.4 2.8 0  6.6 2.8 0  6.8 2.8 0  7 2.8 0  7.2 2.8 0  7.4 2.8 0  7.6 2.8 0  7.8 2.8 0  8 2.8 0  8.199999999999999 2.8 0  8.4 2.8 0  8.6 2.8 0  8.800000000000001 2.8 0  9 2.8 0  9.199999999999999 2.8 0  9.4 2.8 0  9.6 2.8 0  9.800000000000001 2.8 0  10 2.8 0  0 3 0  0.2 3 0  0.4 3 0  0.6 3 0  0.8 3 0  1 3 0  1.2 3 0  1.4 3 0  1.6 3 0  1.8 3 0  2 3 0  2.2 3 0  2.4 3 0  2.6 3 0  2.8 3 0  3 3 0  3.2 3 0  3.4 3 0  3.6 3 0  3.8 3 0  4 3 0  4.2 3 0  4.4 3 0  4.6 3 0  4.8 3 0  5 3 0  5.2 3 0  5.4 3 0  5.6 3 0  5.8 3 0  6 3 0  6.2 3 0  6.4 3 0  6.6 3 0  6.8 3 0  7 3 0  7.2 3 0  7.4 3 0  7.6 3 0  7.8 3 0  8 3 0  8.199999999999999 3 0  8.4 3 0  8.6 3 0  8.800000000000001 3 0  9 3 0  9.199999999999999 3 0  9.4 3 0  9.6 3 0  9.800000000000001 3 0  10 3 0  0 3.2 0  0.2 3.2 0  0.4 3.2 0  0.6 3.2 0  0.8 3.2 0  1 3.2 0  1.2 3.2 0  1.4 3.2 0  1.6 3.2 0  1.8 3.2 0  2 3.2 0  2.2 3.2 0  2.4 3.2 0  2.6 3.2 0  2.8 3.2 0  3 3.2 0  3.2 3.2 0  3.4 3.2 0  3.6 3.2 0  3.8 3.2 0  4 3.2 0  4.2 3.2 0  4.4 3.2 0  4.6 3.2 0  4.8 3.2 0  5 3.2 0  5.2 3.2 0  5.4 3.2 0  5.6 3.2 0  5.8 3.2 0  6 3.2 0  6.2 3.2 0  6.4 3.2 0  6.6 3.2 0  6.8 3.2 0  7 3.2 0  7.2 3.2 0  7.4 3.2 0  7.6 3.2 0  7.8 3.2 0  8 3.2 0  8.199999999999999 3.2 0  8.4 3.2 0  8.6 3.2 0  8.800000000000001 3.2 0  9 3.2 0  9.199999999999999 3.2 0  9.4 3.2 0  9.6 3.2 0  9.800000000000001 3.2 0  10 3.2 0  0 3.4 0  0.2 3.4 0  0.4 3.4 0  0.6 3.4 0  0.8 3.4 0  1 
[...]
<PointData  Scalars="f_8"> 
<DataArray  type="Float64"  Name="f_8"  format="ascii">-1.1106292375204052e-02  -4.1792885513317925e-03  -1.0281698220756105e-03  4.3417205355411286e-05  8.8433514639968652e-04  1.4478293263983475e-03  1.8661260985027186e-03  2.1809390263888635e-03  2.4227327416769797e-03  2.6109668384103222e-03  2.7587727961696077e-03  2.8751910313489005e-03  2.9664250753055621e-03  3.0366254027926675e-03  3.0884022139293439e-03  3.1231837317799134e-03  3.1414870017875849e-03  3.1431406419681362e-03  3.1274825906413258e-03  3.0935449921138656e-03  3.0402306303063337e-03  2.9664798721907755e-03  2.8714236568202281e-03  2.7545165760151408e-03  2.6156443651753902e-03  2.4552017620098235e-03  2.2741391104073852e-03  2.0739786368668216e-03  1.8568034812394276e-03  1.6252240570569958e-03  1.3823271853050274e-03  1.1316139503032392e-03  8.7693270131183540e-04  6.2241433687749222e-04  3.7241809261335076e-04  1.3149753702882994e-04  -9.5601581586455869e-05  -3.0389734297999301e-04  -4.8806316101810066e-04  -6.4222949678036708e-04  -7.5965778915581736e-04  -8.3222406446925015e-04  -8.4960212609863433e-04  -7.9795449905617987e-04  -6.5762520987993787e-04  -3.9838797651453286e-04  2.0894147480818262e-05  7.3154789045864728e-04  1.6858129661886522e-03  4.7353432748721124e-03  1.1523457714791373e-02  -8.3545238507479511e-02  -4.2854345047947773e-02  -2.0406009847557010e-02  -6.9145583613266243e-03  1.9203272612115050e-03  8.0146660486799786e-03  1.2323373562048188e-02  1.5390306797273816e-02  1.7545790379446747e-02  1.9000082983802929e-02  1.9890643509437415e-02  2.0308587959632828e-02  2.0314710084940103e-02  1.9949901802716469e-02  1.9242411204037600e-02  1.8213222201530054e-02  1.6880237988339084e-02  1.5261610644725025e-02  1.3378355907085748e-02  1.1256270959610737e-02  8.9271114260809255e-03  6.4289719994561198e-03  3.8058468914126623e-03  1.1064122649178411e-03  -1.6178416511468481e-03  -4.3149155549231629e-03  -6.9347655532039235e-03  -9.4316235946588899e-03  -1.1765891521531711e-02  -1.3905391705875859e-02  -1.5825852551667012e-02  -1.7510611391375889e-02  -1.8949608390003113e-02  -2.0137805609546332e-02  -2.1073186180596656e-02  -2.1754468845630103e-02  -2.2178618110483092e-02  -2.2338146374850838e-02  -2.2218094253176161e-02  -2.1792431320716624e-02  -2.1019415615987261e-02  -1.9835125583883822e-02  -1.8143799927333455e-02  -1.5802492700242872e-02  -1.2595175131711515e-02  -8.1858934138827281e-03  -2.0255757661358522e-03  6.8453665208440123e-03  2.0347684779546401e-02  4.2784127248748575e-02  8.3462929471147557e-02  -1.1751108975918306e-01  -6.7587492120552692e-02  -3.5266679387960971e-02  -1.3322484842868007e-02  1.8249750988002130e-03  1.2579008285755110e-02  2.0306673205653807e-02  2.5864580930872894e-02  2.9798240614164865e-02  3.2465337564341126e-02  3.4103941622371910e-02  3.4873519115919384e-02  3.4881047819205063e-02  3.4198661007474603e-02  3.2876326021297489e-02  3.0951491992826926e-02  2.8456759073708961e-02  2.5426089491856225e-02  2.1899744485611539e-02  1.7927922834761908e-02  1.3572970160715811e-02  8.9100146006089002e-03  4.0259568667015064e-03  -9.8311441844491174e-04  -6.0158268515836189e-03  -1.0970307867415640e-02  -1.5749268449079694e-02  -2.0264751710802144e-02  -2.4441958086245521e-02  -2.8221701770623459e-02  -3.1561260426740775e-02  -3.4433605097856243e-02  -3.6825191360271903e-02  -3.8732619031229536e-02  -4.0158508293341215e-02  -4.1106896241363447e-02  -4.1578344100409767e-02  -4.1564779723517860e-02  -4.1043893546744745e-02  -3.9972652986073998e-02  -3.8279165653504435e-02  -3.5851623563421031e-02  -3.2522228664506235e-02  -2.8042483131403260e-02  -2.2043354826264083e-02  -1.3967988156589293e-02  -2.9490761128219368e-03  1.2390123976337845e-02  3.4461753199412845e-02  6.6854079881849326e-02  1.1680766831398834e-01  -1.3626769534303473e-01  -8.3825464773213010e-02  -4.5690579737490425e-02  -1.8212221939173354e-02  1.7371839046227673e-03  1.6319218226911916e-02  2.7019865209896438e-02  3.4835161369604746e-02  4.0438798571574668e-02  4.4288588239367620e-02  4.6696152431065015e-02  4.7872826487147066e-02  4.7960915426127210e-02  4.7055974180492587e-02  4.5223545561404871e-02  4.2512400271595328e-02  3.8965429034313021e-02  3.4628733000400681e-02  2.9559038848080858e-02  2.3829284998772106e-02  1.7532076442991630e-02  1.0780693732410250e-02  3.7074687639277143e-03  -3.5404111414200296e-03  -1.0807283764761212e-02  -1.7936858744996266e-02  -2.4780558142661543e-02  -3.1205273373251720e-02  -3.7099542082280425e-02  -4.2377403485650791e-02  -4.6979560531645953e-02  -5.0871874409712491e-02  -5.4041552783209650e-02  -5.6491603033277736e-02  -5.8234178873618786e-02  -5.9283362756122247e-02  -5.9647731379035937e-02  -5.9322787306440958e-02  -5.8283035383173282e-02  -5.6473143774970022e-02  -5.3797228212627439e-02  -5.0104762540345071e-02  -4.5170815697069717e-02  -3.8667018269410519e-02  -3.0117505152582245e-02  -1.8830668727278062e-02  -3.7937515191758778e-03  1.6494084608379062e-02  4.4206857541838035e-02  8.2482938788620980e-02  1.3498008346556653e-01  -1.4693909185773485e-01  -9.2964969892002869e-02  -5.1885667540540879e-02  -2.0836454121233226e-02  2.5049063448087730e-03  2.0040460197849521e-02  3.3176751902629718e-02  4.2932180678328172e-02  5.0030874599642665e-02  5.4982446295165528e-02  5.8141472310302471e-02  5.9750934784323383e-02  5.9974246591980397e-02  5.8919599835978817e-02  5.6659309542885943e-02  5.3245905980890108e-02  4.8725993088384788e-02  4.3152299426649200e-02  3.6593875147281921e-02  2.9144036384091791e-02  2.0925455342075665e-02  1.2091778407319705e-02  2.8253517951261175e-03  -6.6689657926352749e-03  -1.6173384724616612e-02  -2.5469078502471459e-02  -3.4348866320742050e-02  -4.2628968601175911e-02  -5.0158249060913568e-02  -5.6823786838655882e-02  -6.2552246811043377e-02  -6.7307178327796244e-02  -7.1082916864928999e-02  -7.3896083038530055e-02  -7.5775734457267568e-02  -7.6753059726437603e-02  -7.6851182257832718e-02  -7.6075243426414391e-02  -7.4402519719376350e-02  -7.1771922267681115e-02  -6.8071817033545742e-02  -6.3124643381983814e-02  -5.6666227062662514e-02  -4.8316911373842746e-02  -3.7540682176858693e-02  -2.3587668415499058e-02  -5.4158422111663324e-03  1.8401847540867149e-02  4.9784036248109752e-02  9.1065523668805243e-02  1.4512005548908360e-01  -1.5242392209824510e-01  -9.7649910059892570e-02  -5.4718136779689751e-02  -2.1350565120609261e-02  4.4061644965428907e-03  2.4190674966835288e-02  3.9292753339809916e-02  5.0692547761459088e-02  5.9115127272343436e-02  6.5085256406033243e-02  6.8974128135116830e-02  7.1037099100212053e-02  7.1443858769106139e-02  7.0303031629252985e-02  6.7683013799718861e-02  6.3630376532943109e-02  5.8186620122135754e-02  5.1403498142732172e-02  4.3356593012105912e-02  3.4156363877000877e-02  2.3955586708648360e-02  1.2952057017818409e-02  1.3857019043702285e-03  -1.0470136340188245e-02  -2.2322610646872999e-02  -3.3876895384421790e-02  -4.4854985022951391e-02  -5.5013072485499526e-02  -6.4155014097605198e-02  -7.2140106161802678e-02  -7.8884443528231721e-02  -8.4356220546721303e-02  -8.8566198116000874e-02  -9.1555024889405576e-02  -9.3379130165338275e-02  -9.4096581934267690e-02  -9.3753769514718616e-02  -9.2373171582724775e-02  -8.9941912079278236e-02  -8.6400336864679392e-02  -8.1629461430455769e-02  -7.5435813611823610e-02  -6.7531896176908718e-02  -5.7510244357622746e-02  -4.4809023705061624e-02  -2.8667795413416183e-02  -8.0745356072488075e-03  1.8287698890603464e-02  5.2078956698486063e-02  9.5268456505795324e-02  1.5014469178287607e-01  -1.5440413264312874e-01  -9.9104890834021325e-02  -5.4988698051578758e-02  -2.0031293428735816e-02  7.4749030359881272e-03  2.8985340150830301e-02  4.5677369448287840e-02  5.8472943296512175e-02  6.8071943498110812e-02  7.4990205256644168e-02  7.9595403389248032e-02  8.2138614070276575e-02  8.2781526736002559e-02  8.1620261909657751e-02  7.8706984706069655e-02  7.4070323139183741e-02  6.7735178007349434e-02  5.9741933295731589e-02  5.0164412099690830e-02  3.9125270581511329e-02  2.6807026300896989e-02  1.3456756802894839e-02  -6.1715539150973618e-04  -1.5056940535633372e-02  -2.9475336117808861e-02  -4.3481189165346844e-02  -5.6707164388648361e-02  -6.8835311590093859e-02  -7.9616550122792076e-02  -8.8881336343707304e-02  -9.6540542659289574e-02  -1.0257737792816539e-01  -1.0703253941818405e-01  -1.0998542997777108e-01  -1.1153418456100414e-01  -1.1177661672074797e-01  -1.1079329603205580e-01  -1.0863305650648550e-01  -1.0530047981551417e-01  -1.0074436009801234e-01  -9.4845828037963403e-02  -8.7404646478079440e-02  -7.8122157481924276e-02  -6.6579493878238125e-02  -5.2210123051383339e-02  -3.4266906855992957e-02  -1.1786094143110439e-02  1.6444706285603468e-02  5.1908200032863325e-02  9.6331834261121851e-02  1.5175307796028445e-01  -1.5390165021126936e-01  -9.8244941940249200e-02  -5.3300501373329860e-02  -1.7196824364469180e-02  1.1627810193631150e-02  3.4501233196257884e-02  5.2509567347118889e-02  6.6515973698615255e-02  7.7184624932406701e-02  8.5008747819642433e-02  9.0338597281038463e-02  9.3407612915612059e-02  9.4356458877599844e-02  9.3255542855140788e-02  9.0126978224405782e-02  8.4966912751306953e-02  7.7768775599617229e-02  6.8547336249695737e-02  5.7362582625705559e-02  4.4341434731177430e-02  2.9694437350443175e-02  1.3724135705911961e-02  -3.1778348241314641e-03  -2.0546606579378106e-02  -3.7872330732993856e-02  -5.4637596517358056e-02  -7.0358439417889870e-02  -8.4622150398664567e-02  -9.7115555950098922e-02  -1.0763950241948927e-01  -1.1610829598376458e-01  -1.2253585869082434e-01  -1.2701250140236917e-01  -1.2967704879566627e-01  -1.3068864396065866e-01  -1.3020132870900958e-01  -1.2834296759733238e-01  -1.2519868930376099e-01  -1.2079799654996565e-01  -1.1510409958432252e-01  -1.0800379547298392e-01  -9.9296244234406070e-02  -8.8679205823159260e-02  -7.5731688161122412e-02  -5.9892593528662191e-02  -4.0435984960073605e-02  -1.6445095870777707e-02  1.3210457639713463e-02  4.9892560124457065e-02  9.5187560719501838e-02  1.5098346034744489e-01  -1.5159244771207325e-01  -9.5673386879074243e-02  -5.0110857940922932e-02  -1.3129166496394949e-02  1.6740523837569948e-02  4.0738003085430637e-02  5.9879363307310585e-02  7.4975934888410076e-02  8.6654339590218843e-02  9.5378727428646240e-02  1.0147316816823508e-01  1.0514329953874225e-01  1.0649722466966104e-01  1.0556637185698807e-01  1.0232742804278575e-01  9.6726496654934324e-02  8.8706275874266091e-02  7.8236263085358373e-02  6.5344764229258140e-02  5.0149938806493474e-02  3.2885549477181288e-02  1.3916030316925036e-02  -6.2644181520030030e-03  -2.7052235221225962e-02  -4.7774444312818777e-02  -6.7743627944223020e-02  -8.6319199327485510e-02  -1.0296392395040137e-01  -1.1728531759079530e-01  -1.2905514228131318e-01  -1.3820549184353229e-01  -1.4480505976571661e-01  -1.4902254448792673e-01  -1.5108509615984367e-01  -1.5123854814734830e-01  -1.4971380799618392e-01  -1.4670119067771076e-01  -1.4233236054750614e-01  -1.3666820566519233e-01  -1.2969037496310806e-01  -1.2129417379900964e-01  -1.1128081705437112e-01  -9.9347518582569488e-02  -8.5074477644217675e-02  -6.7908513170344062e-02  -4.7143927442218361e-02  -2.1902071449222051e-02  8.8878969526722893e-03  4.6507461397565390e-02  9.2455413194062780e-02  1.4852770223905148e-01  -1.4794695173477529e-01  -9.1822616214453784e-02  -4.5766706870539353e-02  -8.0685768273845767e-03  2.2678503611108843e-02  4.7652841996159781e-02  6.7818008852017872e-02  8.3942550657659293e-02  9.6618160758626698e-02  1.0627819808924023e-01  1.1321583940750916e-01  1.1760171675067055e-01  1.1950150539870476e-01  1.1889456920729470e-01  1.1569523946137887e-01  1.0977846895261138e-01  1.0101131558737712e-01  8.9290796582522411e-02  7.4586982160777887e-02  5.6987800547680073e-02  3.6739267996148170e-02  1.4272548848246377e-02  -9.7914219372738330e-03  -3.4666882606862973e-02  -5.9459459476563746e-02  -8.3247560163392437e-02  -1.0517512021084525e-01  -1.2453735202248926e-01  -1.4084208961991743e-01  -1.5383573306295703e-01  -1.6349221312057055e-01  -1.6997219196001770e-01  -1.7356496682757508e-01  -1.7462627483304002e-01  -1.7352235434006841e-01  -1.7058612038891283e-01  -1.6608696457182065e-01  -1.6021256461105368e-01  -1.5305945592382555e-01  -1.4462871799951568e-01  -1.3482350732927068e-01  -1.2344590904253827e-01  -1.1019140617077749e-01  -9.4640051716599394e-02  -7.6244150622356760e-02  -5.4312919673688252e-02  -2.7995107355884230e-02  3.7390829697596401e-03  4.2117861484513311e-02  8.8583565991348118e-02  1.4487118812807329e-01  -1.4331074744378480e-01  -8.7015828302706655e-02  -4.0540036323827286e-02  -2.2202097322852519e-03  2.9307309399089779e-02  5.5177400615770394e-02  7.6315026643009140e-02  9.3455178476196499e-02  1.0715966297054395e-01  1.1783269703004456e-01  1.2573531289309484e-01  1.3099893656760783e-01  1.3363905980060098e-01  1.3357063372928563e-01  1.3062748064630955e-01  1.2458846418650041e-01  1.1521311281754359e-01  1.0228849530105269e-01  8.5687015211714679e-02  6.5431216418894475e-02  4.1756968113520060e-02  1.5161673644308520e-02  -1.3578482611270114e-02  -4.3436256289130892e-02  -7.3211835940652087e-02  -1.0165444310872379e-01  -1.2760494419256682e-01  -1.5012829323329915e-01  -1.6860581467066355e-01  -1.8276907356297128e-01  -1.9267434617404874e-01  -1.9863215046853744e-01  -2.0111436767267762e-01  -2.0066098813821795e-01  -1.9780203800105309e-01  -1.9300182568330590e-01  -1.8662551727022358e-01  -1.7892368121976246e-01  -1.7002879046837635e-01  -1.5995791094804049e-01  -1.4861699929581801e-01  -1.3580367376975389e-01  -1.2120662311171523e-01  -1.0440084332262324e-01  -8.4838650966554491e-02  -6.1836959185768862e-02  -3.4561594043022739e-02  -2.0094510050747286e-03  3.7012569142920469e-02  8.3909358428827074e-02  1.4037265652763534e-01  -1.3795228638937052e-01  -8.1507619635925302e-02  -3.4653998155921024e-02  4.2352268416729890e-03  3.6493188724923672e-02  6.3224330021283734e-02  8.5326402219310413e-02  1.0350996910708021e-01  1.1831371677382094e-01  1.3011724123777971e-01  1.3915162606526177e-01  1.4550841964216657e-01  1.4914825440516905e-01  1.4991125555268348e-01  1.4753242491822316e-01  1.4166616127879256e-01  1.3192462276633138e-01  1.1793413888770772e-01  9.9411522782042724e-02  7.6257155749754571e-02  4.8653985609051209e-02  1.7152437873836364e-02  -1.7285859039464141e-02  -5.3312548913471605e-02  -8.9300497481875005e-02  -1.2352717487908266e-01  -1.5439793972223551e-01  -1.8065492982800840e-01  -2.0151836501608497e-01  -2.1672917854389592e-01  -2.2649451145224417e-01  -2.3136523145821658e-01  -2.3208660512093648e-01  -2.2945878416349197e-01  -2.2422960936934663e-01  -2.1702677000842349e-01  -2.0832510048399014e-01  -1.9843930651295671e-01  -1.8753157062201500e-01  -1.7562527001896619e-01  -1.6261870647015247e-01  -1.4829524569560157e-01  -1.3232816406527562e-01  -1.1427976412325112e-01  -9.3595079598469536e-02  -6.9590896007848291e-02  -4.1440930438864723e-02  -8.1578082979896476e-03  3.1428874896571632e-02  7.8698591634145998e-02  1.3531069017239888e-01  -1.3209252012572054e-01  -7.5510285921608189e-02  -2.8301541032938610e-02  1.1131288904150658e-02  4.4099856896547954e-02  7.1688286876489829e-02  9.4777094778753984e-02  1.1406175052767635e-01  1.3006629745745338e-01  1.4315320046743291e-01  1.5352973525562935e-01  1.6125149392771465e-01  1.6622432867657538e-01  1.6820723610159219e-01  1.6682026060285082e-01  1.6156333573153889e-01  1.5185368019361961e-01  1.3709004235905511e-01  1.1675028178581970e-01  9.0522642130115558e-02  5.8459229328311581e-02  2.1123468540136432e-02  -2.0313266689025274e-02  -6.4077142872563816e-02  -1.0793592683367041e-01  -1.4947794776576875e-01  -1.8646885092139692e-01  -2.1718909261287825e-01  -2.4065475596049862e-01  -2.5666719257147158e-01  -2.6570083458291194e-01  -2.6868869555317249e-01  -2.6678144027159645e-01  -2.6114040314227932e-01  -2.5279484931595131e-01  -2.4256609202609480e-01  -2.3104445839286808e-01  -2.1859973104022432e-01  -2.0540763080250388e-01  -1.9147984826380035e-01  -1.7669020816341455e-01  -1.6079346780234308e-01  -1.4343577185235537e-01  -1.2415716958264164e-01  -1.0238722639667118e-01  -7.7434944576023554e-02  -4.8474114848553795e-02  -1.4524792980497157e-02  2.5569353456309840e-02  7.3170261125606359e-02  1.2991188033398074e-01  -1.2592375268732248e-01  -6.9210856064278778e-02  -2.1658445962140119e-02  1.8307502677040670e-02  5.1984314945034957e-02  8.0444364261087017e-02  1.0456028693485045e-01  1.2502237835282534e-01  1.4235044606399239e-01  1.5690064243652468e-01  1.6886732409664945e-01  1.7828015578306541e-01  1.8499747972499989e-01  1.8869840659894027e-01  1.8887828683025237e-01  1.8485526272513508e-01  1.7579921766777615e-01  1.6079762244057424e-01  1.3897330705681477e-01  1.0966341514993162e-01  7.2652508619902287e-02  2.8424114038197411e-02  -2.1640416530189239e-02  -7.5211328002057626e-02  -1.2919103997777123e-01  -1.8014117182323550e-01  -2.2486540385903284e-01  -2.6097017501051389e-01  -2.8721765556068635e-01  -3.0357302016083271e-01  -3.1097680884632883e-01  -3.1096616774030050e-01  -3.0528611346182416e-01  -2.9558801578950905e-01  -2.8324997423609344e-01  -2.6930630634307895e-01  -2.5445182939762140e-01  -2.3908542766445526e-01  -2.2336614434523416e-01  -2.0726567316473249e-01  -1.9060966598627266e-01  -1.7310574041573026e-01  -1.5435894641285630e-01  -1.3387661175762841e-01  -1.1106470353044529e-01  -8.5217629452191843e-02  -5.5503008169341277e-02  -2.0942253511217004e-02  1.9612826474812151e-02  6.7511859678646494e-02  1.2436807593542916e-01  -1.1962155544229218e-01  -6.2782017904354614e-02  -1.4892043843717754e-02  2.5603323741187112e-02  5.9993172501429222e-02  8.9345847288340163e-02  1.1453526719233675e-01  1.3625725071304834e-01  1.5503982522457821e-01  1.7124727703623069e-01  1.8507748273493829e-01  1.9655201371749381e-01  2.0549919830036134e-01  2.1153183006252821e-01  2.1402392504846771e-01  2.1209532883488061e-01  2.0461929450740932e-01  1.9027573941128509e-01  1.6767907799303158e-01  1.3560833480977466e-01  9.3349116654207531e-02  4.1112447189586690e-02  -1.9574466821034569e-02  -8.5678962487354335e-02  -1.5285769031999458e-01  -2.1611077642322873e-01  -2.7075769284591999e-01  -3.1339911495391903e-01  -3.4249517688545145e-01  -3.5838070450757203e-01  -3.6280344953686744e-01  -3.5825005433951917e-01  -3.4732254102680338e-01  -3.3231438314749534e-01  -3.1500845744942968e-01  -2.9664388411943099e-01  -2.7797898724942371e-01  -2.5939065255758881e-01  -2.4097305622300486e-01  -2.2261827993802152e-01  -2.0407390843952886e-01  -1.8497913681984426e-01  -1.6488331954727281e-01  -1.4325116299374654e-01  -1.1945814471699799e-01  -9.2778904703657239e-02  -6.2370555997470281e-02  -2.7251891648133734e-02  1.3720934609809877e-02  6.1888571719351151e-02  1.1884671939037750e-01  -1.1335189255927450e-01  -5.6388675458978882e-02  -8.1664876808842622e-03  3.2854439235761590e-02  6.7960334478797291e-02  9.8222632873094309e-02  1.2452554041987678e-01  1.4758172035981584e-01  1.6794168775150745e-01  1.8599583278693257e-01  2.0196791408931705e-01  2.1589841853486635e-01  2.2761648141750029e-01  2.3670022563698515e-01  2.4242811555603133e-01  2.4372931926259955e-01  2.3915040810695434e-01  2.2686970557600786e-01  2.0480749691079303e-01  1.7089253754379713e-01  1.2353551348761430e-01  6.2301965407958904e-02  -1.1348636265625161e-02  -9.3557492791640856e-02  -1.7818612465719935e-01  -2.5780749323029123e-01  -3.2538635710234520e-01  -3.7598446825073450e-01  -4.0774068454440937e-01  -4.2176688519699068e-01  -4.2120511515861536e-01  -4.1002030003773593e-01  -3.9201716925369889e-01  -3.7028380567565661e-01  -3.4702012304755869e-01  -3.2360706033659070e-01  -3.0077829821762669e-01  -2.7880448992380702e-01  -2.5764700671521906e-01  -2.3706897959864587e-01  -2.1670673988416794e-01  -1.9611009108279806e-01  -1.7476013187810599e-01  -1.5207172058885621e-01  -1.2738570915928046e-01  -9.9954408585290852e-02  -6.892249741