<?xml version="1.0"?>
<VTKFile type="UnstructuredGrid"  version="0.1"  >
<UnstructuredGrid>
<Piece  NumberOfPoints="5101" NumberOfCells="10000">
<Points>
<DataArray  type="Float64"  NumberOfComponents="3"  format="ascii">0 0 0  0.2 0 0  0.4 0 0  0.6 0 0  0.8 0 0  1 0 0  1.2 0 0  1.4 0 0  1.6 0 0  1.8 0 0  2 0 0  2.2 0 0  2.4 0 0  2.6 0 0  2.8 0 0  3 0 0  3.2 0 0  3.4 0 0  3.6 0 0  3.8 0 0  4 0 0  4.2 0 0  4.4 0 0  4.6 0 0  4.8 0 0  5 0 0  5.2 0 0  5.4 0 0  5.6 0 0  5.8 0 0  6 0 0  6.2 0 0  6.4 0 0  6.6 0 0  6.8 0 0  7 0 0  7.2 0 0  7.4 0 0  7.6 0 0  7.8 0 0  8 0 0  8.199999999999999 0 0  8.4 0 0  8.6 0 0  8.800000000000001 0 0  9 0 0  9.199999999999999 0 0  9.4 0 0  9.6 0 0  9.800000000000001 0 0  10 0 0  0 0.2 0  0.2 0.2 0  0.4 0.2 0  0.6 0.2 0  0.8 0.2 0  1 0.2 0  1.2 0.2 0  1.4 0.2 0  1.6 0.2 0  1.8 0.2 0  2 0.2 0  2.2 0.2 0  2.4 0.2 0  2.6 0.2 0  2.8 0.2 0  3 0.2 0  3.2 0.2 0  3.4 0.2 0  3.6 0.2 0  3.8 0.2 0  4 0.2 0  4.2 0.2 0  4.4 0.2 0  4.6 0.2 0  4.8 0.2 0  5 0.2 0  5.2 0.2 0  5.4 0.2 0  5.6 0.2 0  5.8 0.2 0  6 0.2 0  6.2 0.2 0  6.4 0.2 0  6.6 0.2 0  6.8 0.2 0  7 0.2 0  7.2 0.2 0  7.4 0.2 0  7.6 0.2 0  7.8 0.2 0  8 0.2 0  8.199999999999999 0.2 0  8.4 0.2 0  8.6 0.2 0  8.800000000000001 0.2 0  9 0.2 0  9.199999999999999 0.2 0  9.4 0.2 0  9.6 0.2 0  9.800000000000001 0.2 0  10 0.2 0  0 0.4 0  0.2 0.4 0  0.4 0.4 0  0.6 0.4 0  0.8 0.4 0  1 0.4 0  1.2 0.4 0  1.4 0.4 0  1.6 0.4 0  1.8 0.4 0  2 0.4 0  2.2 0.4 0  2.4 0.4 0  2.6 0.4 0  2.8 0.4 0  3 0.4 0  3.2 0.4 0  3.4 0.4 0  3.6 0.4 0  3.8 0.4 0  4 0.4 0  4.2 0.4 0  4.4 0.4 0  4.6 0.4 0  4.8 0.4 0  5 0.4 0  5.2 0.4 0  5.4 0.4 0  5.6 0.4 0  5.8 0.4 0  6 0.4 0  6.2 0.4 0  6.4 0.4 0  6.6 0.4 0  6.8 0.4 0  7 0.4 0  7.2 0.4 0  7.4 0.4 0  7.6 0.4 0  7.8 0.4 0  8 0.4 0  8.199999999999999 0.4 0  8.4 0.4 0  8.6 0.4 0  8.800000000000001 0.4 0  9 0.4 0  9.199999999999999 0.4 0  9.4 0.4 0  9.6 0.4 0  9.800000000000001 0.4 0  10 0.4 0  0 0.6 0  0.2 0.6 0  0.4 0.6 0  0.6 0.6 0  0.8 0.6 0  1 0.6 0  1.2 0.6 0  1.4 0.6 0  1.6 0.6 0  1.8 0.6 0  2 0.6 0  2.2 0.6 0  2.4 0.6 0  2.6 0.6 0  2.8 0.6 0  3 0.6 0  3.2 0.6 0  3.4 0.6 0  3.6 0.6 0  3.8 0.6 0  4 0.6 0  4.2 0.6 0  4.4 0.6 0  4.6 0.6 0  4.8 0.6 0  5 0.6 0  5.2 0.6 0  5.4 0.6 0  5.6 0.6 0  5.8 0.6 0  6 0.6 0  6.2 0.6 0  6.4 0.6 0  6.6 0.6 0  6.8 0.6 0  7 0.6 0  7.2 0.6 0  7.4 0.6 0  7.6 0.6 0  7.8 0.6 0  8 0.6 0  8.199999999999999 0.6 0  8.4 0.6 0  8.6 0.6 0  8.800000000000001 0.6 0  9 0.6 0  9.199999999999999 0.6 0  9.4 0.6 0  9.6 0.6 0  9.800000000000001 0.6 0  10 0.6 0  0 0.8 0  0.2 0.8 0  0.4 0.8 0  0.6 0.8 0  0.8 0.8 0  1 0.8 0  1.2 0.8 0  1.4 0.8 0  1.6 0.8 0  1.8 0.8 0  2 0.8 0  2.2 0.8 0  2.4 0.8 0  2.6 0.8 0  2.8 0.8 0  3 0.8 0  3.2 0.8 0  3.4 0.8 0  3.6 0.8 0  3.8 0.8 0  4 0.8 0  4.2 0.8 0  4.4 0.8 0  4.6 0.8 0  4.8 0.8 0  5 0.8 0  5.2 0.8 0  5.4 0.8 0  5.6 0.8 0  5.8 0.8 0  6 0.8 0  6.2 0.8 0  6.4 0.8 0  6.6 0.8 0  6.8 0.8 0  7 0.8 0  7.2 0.8 0  7.4 0.8 0  7.6 0.8 0  7.8 0.8 0  8 0.8 0  8.199999999999999 0.8 0  8.4 0.8 0  8.6 0.8 0  8.800000000000001 0.8 0  9 0.8 0  9.199999999999999 0.8 0  9.4 0.8 0  9.6 0.8 0  9.800000000000001 0.8 0  10 0.8 0  0 1 0  0.2 1 0  0.4 1 0  0.6 1 0  0.8 1 0  1 1 0  1.2 1 0  1.4 1 0  1.6 1 0  1.8 1 0  2 1 0  2.2 1 0  2.4 1 0  2.6 1 0  2.8 1 0  3 1 0  3.2 1 0  3.4 1 0  3.6 1 0  3.8 1 0  4 1 0  4.2 1 0  4.4 1 0  4.6 1 0  4.8 1 0  5 1 0  5.2 1 0  5.4 1 0  5.6 1 0  5.8 1 0  6 1 0  6.2 1 0  6.4 1 0  6.6 1 0  6.8 1 0  7 1 0  7.2 1 0  7.4 1 0  7.6 1 0  7.8 1 0  8 1 0  8.199999999999999 1 0  8.4 1 0  8.6 1 0  8.800000000000001 1 0  9 1 0  9.199999999999999 1 0  9.4 1 0  9.6 1 0  9.800000000000001 1 0  10 1 0  0 1.2 0  0.2 1.2 0  0.4 1.2 0  0.6 1.2 0  0.8 1.2 0  1 1.2 0  1.2 1.2 0  1.4 1.2 0  1.6 1.2 0  1.8 1.2 0  2 1.2 0  2.2 1.2 0  2.4 1.2 0  2.6 1.2 0  2.8 1.2 0  3 1.2 0  3.2 1.2 0  3.4 1.2 0  3.6 1.2 0  3.8 1.2 0  4 1.2 0  4.2 1.2 0  4.4 1.2 0  4.6 1.2 0  4.8 1.2 0  5 1.2 0  5.2 1.2 0  5.4 1.2 0  5.6 1.2 0  5.8 1.2 0  6 1.2 0  6.2 1.2 0  6.4 1.2 0  6.6 1.2 0  6.8 1.2 0  7 1.2 0  7.2 1.2 0  7.4 1.2 0  7.6 1.2 0  7.8 1.2 0  8 1.2 0  8.199999999999999 1.2 0  8.4 1.2 0  8.6 1.2 0  8.800000000000001 1.2 0  9 1.2 0  9.199999999999999 1.2 0  9.4 1.2 0  9.6 1.2 0  9.800000000000001 1.2 0  10 1.2 0  0 1.4 0  0.2 1.4 0  0.4 1.4 0  0.6 1.4 0  0.8 1.4 0  1 1.4 0  1.2 1.4 0  1.4 1.4 0  1.6 1.4 0  1.8 1.4 0  2 1.4 0  2.2 1.4 0  2.4 1.4 0  2.6 1.4 0  2.8 1.4 0  3 1.4 0  3.2 1.4 0  3.4 1.4 0  3.6 1.4 0  3.8 1.4 0  4 1.4 0  4.2 1.4 0  4.4 1.4 0  4.6 1.4 0  4.8 1.4 0  5 1.4 0  5.2 1.4 0  5.4 1.4 0  5.6 1.4 0  5.8 1.4 0  6 1.4 0  6.2 1.4 0  6.4 1.4 0  6.6 1.4 0  6.8 1.4 0  7 1.4 0  7.2 1.4 0  7.4 1.4 0  7.6 1.4 0  7.8 1.4 0  8 1.4 0  8.199999999999999 1.4 0  8.4 1.4 0  8.6 1.4 0  8.800000000000001 1.4 0  9 1.4 0  9.199999999999999 1.4 0  9.4 1.4 0  9.6 1.4 0  9.800000000000001 1.4 0  10 1.4 0  0 1.6 0  0.2 1.6 0  0.4 1.6 0  0.6 1.6 0  0.8 1.6 0  1 1.6 0  1.2 1.6 0  1.4 1.6 0  1.6 1.6 0  1.8 1.6 0  2 1.6 0  2.2 1.6 0  2.4 1.6 0  2.6 1.6 0  2.8 1.6 0  3 1.6 0  3.2 1.6 0  3.4 1.6 0  3.6 1.6 0  3.8 1.6 0  4 1.6 0  4.2 1.6 0  4.4 1.6 0  4.6 1.6 0  4.8 1.6 0  5 1.6 0  5.2 1.6 0  5.4 1.6 0  5.6 1.6 0  5.8 1.6 0  6 1.6 0  6.2 1.6 0  6.4 1.6 0  6.6 1.6 0  6.8 1.6 0  7 1.6 0  7.2 1.6 0  7.4 1.6 0  7.6 1.6 0  7.8 1.6 0  8 1.6 0  8.199999999999999 1.6 0  8.4 1.6 0  8.6 1.6 0  8.800000000000001 1.6 0  9 1.6 0  9.199999999999999 1.6 0  9.4 1.6 0  9.6 1.6 0  9.800000000000001 1.6 0  10 1.6 0  0 1.8 0  0.2 1.8 0  0.4 1.8 0  0.6 1.8 0  0.8 1.8 0  1 1.8 0  1.2 1.8 0  1.4 1.8 0  1.6 1.8 0  1.8 1.8 0  2 1.8 0  2.2 1.8 0  2.4 1.8 0  2.6 1.8 0  2.8 1.8 0  3 1.8 0  3.2 1.8 0  3.4 1.8 0  3.6 1.8 0  3.8 1.8 0  4 1.8 0  4.2 1.8 0  4.4 1.8 0  4.6 1.8 0  4.8 1.8 0  5 1.8 0  5.2 1.8 0  5.4 1.8 0  5.6 1.8 0  5.8 1.8 0  6 1.8 0  6.2 1.8 0  6.4 1.8 0  6.6 1.8 0  6.8 1.8 0  7 1.8 0  7.2 1.8 0  7.4 1.8 0  7.6 1.8 0  7.8 1.8 0  8 1.8 0  8.199999999999999 1.8 0  8.4 1.8 0  8.6 1.8 0  8.800000000000001 1.8 0  9 1.8 0  9.199999999999999 1.8 0  9.4 1.8 0  9.6 1.8 0  9.800000000000001 1.8 0  10 1.8 0  0 2 0  0.2 2 0  0.4 2 0  0.6 2 0  0.8 2 0  1 2 0  1.2 2 0  1.4 2 0  1.6 2 0  1.8 2 0  2 2 0  2.2 2 0  2.4 2 0  2.6 2 0  2.8 2 0  3 2 0  3.2 2 0  3.4 2 0  3.6 2 0  3.8 2 0  4 2 0  4.2 2 0  4.4 2 0  4.6 2 0  4.8 2 0  5 2 0  5.2 2 0  5.4 2 0  5.6 2 0  5.8 2 0  6 2 0  6.2 2 0  6.4 2 0  6.6 2 0  6.8 2 0  7 2 0  7.2 2 0  7.4 2 0  7.6 2 0  7.8 2 0  8 2 0  8.199999999999999 2 0  8.4 2 0  8.6 2 0  8.800000000000001 2 0  9 2 0  9.199999999999999 2 0  9.4 2 0  9.6 2 0  9.800000000000001 2 0  10 2 0  0 2.2 0  0.2 2.2 0  0.4 2.2 0  0.6 2.2 0  0.8 2.2 0  1 2.2 0  1.2 2.2 0  1.4 2.2 0  1.6 2.2 0  1.8 2.2 0  2 2.2 0  2.2 2.2 0  2.4 2.2 0  2.6 2.2 0  2.8 2.2 0  3 2.2 0  3.2 2.2 0  3.4 2.2 0  3.6 2.2 0  3.8 2.2 0  4 2.2 0  4.2 2.2 0  4.4 2.2 0  4.6 2.2 0  4.8 2.2 0  5 2.2 0  5.2 2.2 0  5.4 2.2 0  5.6 2.2 0  5.8 2.2 0  6 2.2 0  6.2 2.2 0  6.4 2.2 0  6.6 2.2 0  6.8 2.2 0  7 2.2 0  7.2 2.2 0  7.4 2.2 0  7.6 2.2 0  7.8 2.2 0  8 2.2 0  8.199999999999999 2.2 0  8.4 2.2 0  8.6 2.2 0  8.800000000000001 2.2 0  9 2.2 0  9.199999999999999 2.2 0  9.4 2.2 0  9.6 2.2 0  9.800000000000001 2.2 0  10 2.2 0  0 2.4 0  0.2 2.4 0  0.4 2.4 0  0.6 2.4 0  0.8 2.4 0  1 2.4 0  1.2 2.4 0  1.4 2.4 0  1.6 2.4 0  1.8 2.4 0  2 2.4 0  2.2 2.4 0  2.4 2.4 0  2.6 2.4 0  2.8 2.4 0  3 2.4 0  3.2 2.4 0  3.4 2.4 0  3.6 2.4 0  3.8 2.4 0  4 2.4 0  4.2 2.4 0  4.4 2.4 0  4.6 2.4 0  4.8 2.4 0  5 2.4 0  5.2 2.4 0  5.4 2.4 0  5.6 2.4 0  5.8 2.4 0  6 2.4 0  6.2 2.4 0  6.4 2.4 0  6.6 2.4 0  6.8 2.4 0  7 2.4 0  7.2 2.4 0  7.4 2.4 0  7.6 2.4 0  7.8 2.4 0  8 2.4 0  8.199999999999999 2.4 0  8.4 2.4 0  8.6 2.4 0  8.800000000000001 2.4 0  9 2.4 0  9.199999999999999 2.4 0  9.4 2.4 0  9.6 2.4 0  9.800000000000001 2.4 0  10 2.4 0  0 2.6 0  0.2 2.6 0  0.4 2.6 0  0.6 2.6 0  0.8 2.6 0  1 2.6 0  1.2 2.6 0  1.4 2.6 0  1.6 2.6 0  1.8 2.6 0  2 2.6 0  2.2 2.6 0  2.4 2.6 0  2.6 2.6 0  2.8 2.6 0  3 2.6 0  3.2 2.6 0  3.4 2.6 0  3.6 2.6 0  3.8 2.6 0  4 2.6 0  4.2 2.6 0  4.4 2.6 0  4.6 2.6 0  4.8 2.6 0  5 2.6 0  5.2 2.6 0  5.4 2.6 0  5.6 2.6 0  5.8 2.6 0  6 2.6 0  6.2 2.6 0  6.4 2.6 0  6.6 2.6 0  6.8 2.6 0  7 2.6 0  7.2 2.6 0  7.4 2.6 0  7.6 2.6 0  7.8 2.6 0  8 2.6 0  8.199999999999999 2.6 0  8.4 2.6 0  8.6 2.6 0  8.800000000000001 2.6 0  9 2.6 0  9.199999999999999 2.6 0  9.4 2.6 0  9.6 2.6 0  9.800000000000001 2.6 0  10 2.6 0  0 2.8 0  0.2 2.8 0  0.4 2.8 0  0.6 2.8 0  0.8 2.8 0  1 2.8 0  1.2 2.8 0  1.4 2.8 0  1.6 2.8 0  1.8 2.8 0  2 2.8 0  2.2 2.8 0  2.4 2.8 0  2.6 2.8 0  2.8 2.8 0  3 2.8 0  3.2 2.8 0  3.4 2.8 0  3.6 2.8 0  3.8 2.8 0  4 2.8 0  4.2 2.8 0  4.4 2.8 0  4.6 2.8 0  4.8 2.8 0  5 2.8 0  5.2 2.8 0  5.4 2.8 0  5.6 2.8 0  5.8 2.8 0  6 2.8 0  6.2 2.8 0  6.4 2.8 0  6.6 2.8 0  6.8 2.8 0  7 2.8 0  7.2 2.8 0  7.4 2.8 0  7.6 2.8 0  7.8 2.8 0  8 2.8 0  8.199999999999999 2.8 0  8.4 2.8 0  8.6 2.8 0  8.800000000000001 2.8 0  9 2.8 0  9.199999999999999 2.8 0  9.4 2.8 0  9.6 2.8 0  9.800000000000001 2.8 0  10 2.8 0  0 3 0  0.2 3 0  0.4 3 0  0.6 3 0  0.8 3 0  1 3 0  1.2 3 0  1.4 3 0  1.6 3 0  1.8 3 0  2 3 0  2.2 3 0  2.4 3 0  2.6 3 0  2.8 3 0  3 3 0  3.2 3 0  3.4 3 0  3.6 3 0  3.8 3 0  4 3 0  4.2 3 0  4.4 3 0  4.6 3 0  4.8 3 0  5 3 0  5.2 3 0  5.4 3 0  5.6 3 0  5.8 3 0  6 3 0  6.2 3 0  6.4 3 0  6.6 3 0  6.8 3 0  7 3 0  7.2 3 0  7.4 3 0  7.6 3 0  7.8 3 0  8 3 0  8.199999999999999 3 0  8.4 3 0  8.6 3 0  8.800000000000001 3 0  9 3 0  9.199999999999999 3 0  9.4 3 0  9.6 3 0  9.800000000000001 3 0  10 3 0  0 3.2 0  0.2 3.2 0  0.4 3.2 0  0.6 3.2 0  0.8 3.2 0  1 3.2 0  1.2 3.2 0  1.4 3.2 0  1.6 3.2 0  1.8 3.2 0  2 3.2 0  2.2 3.2 0  2.4 3.2 0  2.6 3.2 0  2.8 3.2 0  3 3.2 0  3.2 3.2 0  3.4 3.2 0  3.6 3.2 0  3.8 3.2 0  4 3.2 0  4.2 3.2 0  4.4 3.2 0  4.6 3.2 0  4.8 3.2 0  5 3.2 0  5.2 3.2 0  5.4 3.2 0  5.6 3.2 0  5.8 3.2 0  6 3.2 0  6.2 3.2 0  6.4 3.2 0  6.6 3.2 0  6.8 3.2 0  7 3.2 0  7.2 3.2 0  7.4 3.2 0  7.6 3.2 0  7.8 3.2 0  8 3.2 0  8.199999999999999 3.2 0  8.4 3.2 0  8.6 3.2 0  8.800000000000001 3.2 0  9 3.2 0  9.199999999999999 3.2 0  9.4 3.2 0  9.6 3.2 0  9.800000000000001 3.2 0  10 3.2 0  0 3.4 0  0.2 3.4 0  0.4 3.4 0  0.6 3.4 0  0.8 3.4 0  1 
[...]
<PointData  Scalars="f_8"> 
<DataArray  type="Float64"  Name="f_8"  format="ascii">-1.1554896225653944e-02  -4.4010458826690638e-03  -1.1505842883070521e-03  -4.7950397901902535e-05  8.1792873957164621e-04  1.3976887837465809e-03  1.8278916269770325e-03  2.1515112589005629e-03  2.3999379759520939e-03  2.5932270728151428e-03  2.7449171012631874e-03  2.8643380512709867e-03  2.9579045104619521e-03  3.0299236940456195e-03  3.0831238536284306e-03  3.1190230746165944e-03  3.1382073803427443e-03  3.1405587076594084e-03  3.1254564782941243e-03  3.0919653360404501e-03  3.0390137421155042e-03  2.9655625838018946e-03  2.8707594677311052e-03  2.7540728430144506e-03  2.6154003467781808e-03  2.4551473881023432e-03  2.2742743949445963e-03  2.0743136928054215e-03  1.8573591356475425e-03  1.6260331030586886e-03  1.3834363501617098e-03  1.1330867077386907e-03  8.7885311577649350e-04  6.2489220332096070e-04  3.7559573505898519e-04  1.3555876584878977e-04  -9.0419661223238750e-05  -2.9728869638761857e-04  -4.7963195957438230e-04  -6.3146194339609295e-04  -7.4588343820351246e-04  -8.1456150974884849e-04  -8.2688048326767100e-04  -7.6859590328068501e-04  -6.1945618414892181e-04  -3.4830947012298984e-04  8.7241549695072162e-05  8.2285891087182750e-04  1.8081735714756029e-03  4.9570466126324991e-03  1.1971998691569782e-02  -8.7147296709794972e-02  -4.5147153388507610e-02  -2.1969398967325447e-02  -8.0381019157667200e-03  1.0877391211663451e-03  7.3857538447870521e-03  1.1842067219474154e-02  1.5018512429464359e-02  1.7256601351912124e-02  1.8773967632150751e-02  1.9713137534520885e-02  2.0168817701067761e-02  2.0204406610501716e-02  1.9862720619269424e-02  1.9173450552672115e-02  1.8158674979500643e-02  1.6837136229519965e-02  1.5227635691034715e-02  1.3351696182695497e-02  1.1235514876109423e-02  8.9111666502845570e-03  6.4170048267716126e-03  3.7972372181941370e-03  1.1007209089815369e-03  -1.6208956003193570e-03  -4.3154689532902794e-03  -6.9328179947781062e-03  -9.4270372761779981e-03  -1.1758384198211619e-02  -1.3894522276479507e-02  -1.5810998291554520e-02  -1.7490935251549673e-02  -1.8924014045355653e-02  -2.0104876994732686e-02  -2.1031106986070795e-02  -2.1700915690414175e-02  -2.2110618594777989e-02  -2.2251889514452897e-02  -2.2108675186355484e-02  -2.1653503405225854e-02  -2.0842708840245243e-02  -1.9609766333582457e-02  -1.7855325073952915e-02  -1.5431372824851596e-02  -1.2114506830691945e-02  -7.5575868986382426e-03  -1.1935658557482797e-03  7.9683540922416626e-03  2.1910533270952975e-02  4.5076405436442792e-02  8.7064464970563291e-02  -1.2289079039207099e-01  -7.1350398900870790e-02  -3.7982441397126886e-02  -1.5322138180453776e-02  3.2375831202229862e-04  1.1436725641281202e-02  1.9428509262024881e-02  2.5184207480399564e-02  2.9267949599878901e-02  3.2050095190047978e-02  3.3777604919304510e-02  3.4616332935619207e-02  3.4677935399095264e-02  3.4038025352907862e-02  3.2749191353660556e-02  3.0850878161536078e-02  2.8377219502278735e-02  2.5363366358029767e-02  2.1850509502793051e-02  1.7889581575215190e-02  1.3543514276376499e-02  8.8879107036201142e-03  4.0100639337149833e-03  -9.9360501089656387e-04  -6.0214328782326907e-03  -1.0971282306382611e-02  -1.5745611882327676e-02  -2.0256211989178517e-02  -2.4428017303377687e-02  -2.8201549711289776e-02  -3.1533752704833933e-02  -3.4397203104110416e-02  -3.6777879805619217e-02  -3.8671795167414445e-02  -4.0080834626866159e-02  -4.1008105441612007e-02  -4.1452980393413635e-02  -4.1405854653186580e-02  -4.0842424423677179e-02  -3.9717037692371539e-02  -3.7954324357816260e-02  -3.5437800242198329e-02  -3.1993281688468496e-02  -2.7363382178514150e-02  -2.1166397287795506e-02  -1.2826853027026979e-02  -1.4489567046851348e-03  1.4388720241292882e-02  3.7176487139710238e-02  7.0615977631077964e-02  1.2218637817365012e-01  -1.4285663196096418e-01  -8.8718586143111233e-02  -4.9345043378483611e-02  -2.0969106730633048e-02  -3.6271492564669556e-04  1.4705812392341238e-02  2.5771326403296619e-02  3.3863300974695108e-02  3.9678705878010173e-02  4.3691839708850377e-02  4.6226209838718134e-02  4.7501856964802941e-02  4.7667550680830943e-02  4.6823703333599288e-02  4.5039544619482938e-02  4.2366668523574368e-02  3.8850145161284717e-02  3.4537771085062244e-02  2.9487602520919823e-02  2.3773630098920796e-02  1.7489300902768685e-02  1.0748579226071489e-02  3.6843628294810737e-03  -3.5556807467201799e-03  -1.0815468410980767e-02  -1.7938326105160371e-02  -2.4775309829449997e-02  -3.1192944353911341e-02  -3.7079381950181706e-02  -4.2348238415595534e-02  -4.6939733395995040e-02  -5.0819158986591860e-02  -5.3973036123225619e-02  -5.6403527696371469e-02  -5.8121733657401101e-02  -5.9140406347717563e-02  -5.9466427527877362e-02  -5.9093121796367137e-02  -5.7992172964074981e-02  -5.6104565191513647e-02  -5.3329560094248538e-02  -4.9510170448607359e-02  -4.4412763360970581e-02  -3.7697087484628078e-02  -2.8870793655055099e-02  -1.7218999106340328e-02  -1.6955113370949609e-03  1.9249372792115253e-02  4.7859769969624141e-02  8.7374538260932291e-02  1.4156752884102980e-01  -1.5441242388319187e-01  -9.8691422605188484e-02  -5.6276888435306607e-02  -2.4212566610614834e-02  -1.0250522961817459e-04  1.8017178606806603e-02  3.1599651498857170e-02  4.1697922731279327e-02  4.9061578337040015e-02  5.4219007396372428e-02  5.7538726766696885e-02  5.9274152161062688e-02  5.9596569935323404e-02  5.8620160442339080e-02  5.6421826342114914e-02  5.3057636402488548e-02  4.8576941668730569e-02  4.3034617549585798e-02  3.6501404114508001e-02  2.9071959168061105e-02  2.0870031686369458e-02  1.2050144619641634e-02  2.7953714470214421e-03  -6.6888104219303560e-03  -1.6184067850046412e-02  -2.5471077864367669e-02  -3.4342185381806258e-02  -4.2613135601795603e-02  -5.0132293062228356e-02  -5.6786189298042633e-02  -6.2500865529843089e-02  -6.7239138677603935e-02  -7.0994462898267538e-02  -7.3782378232654378e-02  -7.5630598156035497e-02  -7.6568620445979008e-02  -7.6617422341572386e-02  -7.5779400247450626e-02  -7.4028295511796016e-02  -7.1298435910443991e-02  -6.7472204020172996e-02  -6.2364170856085609e-02  -5.5699733708784262e-02  -4.7085300431856256e-02  -3.5966084879954743e-02  -2.1566761942669193e-02  -2.8106969652869560e-03  2.1775780763045812e-02  5.4173141146897141e-02  9.6789902439724504e-02  1.5259135708076613e-01  -1.6056338497033210e-01  -1.0401618442121185e-01  -5.9688001195681573e-02  -2.5229181903497159e-02  1.3751651875922363e-03  2.1817025906154468e-02  3.7429328890709879e-02  4.9226066418262507e-02  5.7958376235928387e-02  6.4170953644637957e-02  6.8250204923880398e-02  7.0463118454490103e-02  7.0988307060253178e-02  6.9941269434278391e-02  6.7395721279882248e-02  6.3402369779999801e-02  5.8005946793980918e-02  5.1260744580554359e-02  4.3244352631115354e-02  3.4068829533790757e-02  2.3888239227639115e-02  1.2901429056720329e-02  1.3492015555283557e-03  -1.0494353861812149e-02  -2.2335731802618056e-02  -3.3879503684823627e-02  -4.4847086945074013e-02  -5.4994095989786815e-02  -6.4123779954147919e-02  -7.2094770413176940e-02  -7.8822407397261651e-02  -8.4274001835187601e-02  -8.8459255497827211e-02  -9.1417523291069530e-02  -9.3203631379536619e-02  -9.3873639356395908e-02  -9.3471398904307598e-02  -9.2016160320234672e-02  -8.9490916547592073e-02  -8.5830700059636722e-02  -8.0909659102414253e-02  -7.4525405410234405e-02  -6.6378817160910639e-02  -5.6047223008945289e-02  -4.2948863818525862e-02  -2.6297237359566860e-02  -5.0464800084339808e-03  2.2163489596879925e-02  5.7046080723315538e-02  1.0163204692810968e-01  1.5828153168609940e-01  -1.6305606522710733e-01  -1.0596631880563917e-01  -6.0414915389445566e-02  -2.4314826421917922e-02  4.0948593057725724e-03  2.6317036243694053e-02  4.3568846612878000e-02  5.6804670813033351e-02  6.6750244837146852e-02  7.3941755056682198e-02  7.8762785681019284e-02  8.1476813457273548e-02  8.2255189316203084e-02  8.1201569704478629e-02  7.8374010128785532e-02  7.3805755712870638e-02  6.7525338851374336e-02  5.9576012224383357e-02  5.0033877488645066e-02  3.9023414003874102e-02  2.6728612989325457e-02  1.3397759885796024e-02  -6.5975367099168963e-04  -1.5085293345636264e-02  -2.9490831820882944e-02  -4.3484513223399114e-02  -5.6698327951945376e-02  -6.8813649201684479e-02  -7.9580686876884799e-02  -8.8829122679139005e-02  -9.6468952661854818e-02  -1.0248236446805090e-01  -1.0690883654439001e-01  -1.0982628956055915e-01  -1.1133102997290001e-01  -1.1151859103871636e-01  -1.1046667538620861e-01  -1.0822049023703825e-01  -1.0478000737258930e-01  -1.0008813942688463e-01  -9.4018490970498386e-02  -8.6361173416482251e-02  -7.6805138026959124e-02  -6.4915617304464754e-02  -5.0105735544413776e-02  -3.1602507334135652e-02  -8.4097591510075842e-03  2.0724686565018996e-02  5.7330978244387737e-02  1.0318989813391033e-01  1.6040172754565502e-01  -1.6295334792144078e-01  -1.0549456089465364e-01  -5.9088547680085271e-02  -2.1806444160889480e-02  7.9618401780849699e-03  3.1587473735049533e-02  5.0193682568803619e-02  6.4674606542363622e-02  7.5719723064251440e-02  8.3842622152957694e-02  8.9409786180511291e-02  9.2667510799744376e-02  9.3766613806706228e-02  9.2785512757187327e-02  8.9752640839162193e-02  8.4669138192307730e-02  7.7532386248174670e-02  6.8360293525722399e-02  5.7215352906371579e-02  4.4226497102024524e-02  2.9605904164842430e-02  1.3657463430262596e-02  -3.2260619298480273e-03  -2.0578833411964686e-02  -3.7890139190507488e-02  -5.4641771809965697e-02  -7.0349000013467611e-02  -8.4598344474201892e-02  -9.7075824897921770e-02  -1.0758140952404019e-01  -1.1602841578281312e-01  -1.2242961971452729e-01  -1.2687397186798785e-01  -1.2949865129140198e-01  -1.3046078096893143e-01  -1.2991189570370129e-01  -1.2797672403401572e-01  -1.2473644970020922e-01  -1.2021559364159314e-01  -1.1437105900247818e-01  -1.0708164671408257e-01  -9.8136376973838965e-02  -8.7220166859681619e-02  -7.3895808858440243e-02  -5.7581852534383679e-02  -3.7527065074559392e-02  -1.2783708220791523e-02  1.7815699898485384e-02  5.5676378019586616e-02  1.0243304952424413e-01  1.6003113327740992e-01  -1.6095916342847205e-01  -1.0322989596395013e-01  -5.6187241655232027e-02  -1.8001592126577860e-02  1.2841074954700606e-02  3.7621064751037853e-02  5.7389549428761406e-02  7.2987587779467220e-02  8.5066484583286542e-02  9.4110571911143290e-02  1.0046024038990697e-01  1.0433422770018248e-01  1.0585110149595882e-01  1.0505062618146035e-01  1.0191612084854230e-01  9.6398965089684430e-02  8.8446059004628250e-02  7.8030254277748748e-02  6.5182545412962811e-02  5.0023260835542066e-02  3.2787930215222937e-02  1.3842448026357319e-02  -6.3177538149686531e-03  -2.7088048558312927e-02  -4.7794506191143359e-02  -6.7748823957939852e-02  -8.6309559394361704e-02  -1.0293861680195300e-01  -1.1724261105704344e-01  -1.2899232751628720e-01  -1.3811876668281817e-01  -1.4468936327328311e-01  -1.4887133142957010e-01  -1.5089003655697425e-01  -1.5098913304023490e-01  -1.4939683781231580e-01  -1.4630011683853958e-01  -1.4182644384882342e-01  -1.3603144634034764e-01  -1.2889015926358935e-01  -1.2028957102152209e-01  -1.1002045082025748e-01  -9.7766930158007817e-02  -8.3092903156709572e-02  -6.5425020205696738e-02  -4.4032911747770132e-02  -1.8008209185712026e-02  1.3755003181891504e-02  5.2578720253748081e-02  1.0000692520279296e-01  1.5788955491696552e-01  -1.5756371468172661e-01  -9.9623282223075663e-02  -5.2073818567542125e-02  -1.3153077662584957e-02  1.8588719316107921e-02  4.4368436557167178e-02  6.5183236188486385e-02  8.1830390589383198e-02  9.4925701055302888e-02  1.0492245899565499e-01  1.1213013521542255e-01  1.1673257224041811e-01  1.1880609453293518e-01  1.1833861782226303e-01  1.1525132528361777e-01  1.0942465390018190e-01  1.0073005191669770e-01  8.9068056866943607e-02  7.4411571585306022e-02  5.6850817707958988e-02  3.6633686949627133e-02  1.4192900522493220e-02  -9.8492866155222049e-03  -3.4705962137083282e-02  -5.9481715313524010e-02  -8.3253983519178607e-02  -1.0516575897440894e-01  -1.2451130213425586e-01  -1.4079745240230201e-01  -1.5376953681389108e-01  -1.6340029382066193e-01  -1.6984902436704308e-01  -1.7340343365613578e-01  -1.7441735813924811e-01  -1.7325472949957671e-01  -1.7024562888555086e-01  -1.6565593686737715e-01  -1.5966895836455955e-01  -1.5237576767617256e-01  -1.4377061838566546e-01  -1.3374814175016600e-01  -1.2209979927545508e-01  -1.0850788679488338e-01  -9.2536183596314589e-02  -7.3617079228136095e-02  -5.1035696348776922e-02  -2.3912068216257534e-02  8.8171856350803303e-03  4.8418827588592415e-02  9.6378251629198913e-02  1.5448213849414499e-01  -1.5312699913872210e-01  -9.5011619589120994e-02  -4.7032341543013868e-02  -7.4760326769805581e-03  2.5062531567702186e-02  5.1755403771954457e-02  7.3560049012795850e-02  9.1239407778550149e-02  1.0537890777627741e-01  1.1640244493102975e-01  1.2458726314322650e-01  1.3007803087385483e-01  1.3290098992840146e-01  1.3297977970937749e-01  1.3015522344949834e-01  1.2421181614809045e-01  1.1491361355779142e-01  1.0205132756475332e-01  8.5500302233121814e-02  6.5285469165279109e-02  4.1644656604992447e-02  1.5076901317470364e-02  -1.3640218813495569e-02  -4.3478234597763454e-02  -7.3236219506302547e-02  -1.0166234117055410e-01  -1.2759643295923681e-01  -1.5010240223355045e-01  -1.6856048111408173e-01  -1.8270106338702194e-01  -1.9257913618471245e-01  -1.9850376168685799e-01  -2.0094513602456540e-01  -2.0044125508886668e-01  -1.9751974047656887e-01  -1.9264196125379751e-01  -1.8616945663119577e-01  -1.7834829515303768e-01  -1.6930535260697585e-01  -1.5905073113759133e-01  -1.4748173604749842e-01  -1.3438526997670874e-01  -1.1943680975522256e-01  -1.0219516568146558e-01  -8.2092996538584387e-02  -5.8423611362467466e-02  -3.0324899328540735e-02  3.2387374757549634e-03  4.3497566367097069e-02  9.1898054284578451e-02  1.5018202016397919e-01  -1.4792821548095075e-01  -8.9659801860853552e-02  -4.1295232660741747e-02  -1.1590662814641363e-03  3.2122339460027120e-02  5.9689605346671462e-02  8.2472185849285409e-02  1.0120800257940978e-01  1.1645896826115915e-01  1.2862412954420541e-01  1.3795068068322497e-01  1.4454340176357305e-01  1.4837372297548707e-01  1.4929053901150027e-01  1.4703594915970192e-01  1.4127008286570761e-01  1.3160971980666544e-01  1.1768491767459027e-01  9.9215504691927733e-02  7.6104315026007646e-02  4.8536313982377441e-02  1.7063616214862149e-02  -1.7350698739685932e-02  -5.3356985856146344e-02  -8.9326921918928756e-02  -1.2353683761322243e-01  -1.5439096183696044e-01  -1.8063028080382657e-01  -2.0147381360885486e-01  -2.1666121585884288e-01  -2.2639823992769320e-01  -2.3123420794395419e-01  -2.3191262156322043e-01  -2.2923156599111524e-01  -2.2393640921642483e-01  -2.1665183226427470e-01  -2.0784896955895663e-01  -1.9783794810763844e-01  -1.8677527055406701e-01  -1.7467726967682803e-01  -1.6143352870472669e-01  -1.4681666165235610e-01  -1.3048675279436187e-01  -1.1199002663646279e-01  -9.0752092176971430e-02  -6.6066528086683785e-02  -3.7079708066544009e-02  -2.7725645080763236e-03  3.8061480083208345e-02  8.6842416673317310e-02  1.4527851573166733e-01  -1.4219647624772883e-01  -8.3787989449484762e-02  -3.5062626971785603e-02  5.6251131580637992e-03  3.9626622213737098e-02  6.8061476276344998e-02  9.1841304234995050e-02  1.1168848615686840e-01  1.2814998107670322e-01  1.4160751116370179e-01  1.5228436279882976e-01  1.6024932860183844e-01  1.6541907409828388e-01  1.6756140943520925e-01  1.6630353476036613e-01  1.6115117641294827e-01  1.5152623357891021e-01  1.3683123454740334e-01  1.1654709715581181e-01  9.0364553683828869e-02  5.8337759145570760e-02  2.1031860306264215e-02  -2.0380278689150304e-02  -6.4123482838863710e-02  -1.0796425907708430e-01  -1.4948970555920707e-01  -1.8646422699885837e-01  -2.1716700349665471e-01  -2.4061278795303714e-01  -2.5660153031457522e-01  -2.6560616471442539e-01  -2.6855807022683637e-01  -2.6660607940463654e-01  -2.6090941115595068e-01  -2.5249482117669297e-01  -2.4218058327747644e-01  -2.3055329319541168e-01  -2.1797812010444409e-01  -2.0462506732570002e-01  -1.9049874507186693e-01  -1.7546423435319702e-01  -1.5926554007429342e-01  -1.4153565702740750e-01  -1.2179866409705453e-01  -9.9464900228316930e-02  -7.3820474643148157e-02  -4.4012283782529242e-02  -9.0292809479906068e-03  3.2320313275427261e-02  8.1438185137405486e-02  1.4000636456548449e-01  -1.3613037370867520e-01  -7.7589296802763830e-02  -2.8515926941300229e-02  1.2711049261306916e-02  4.7428126216226670e-02  7.6742593383889807e-02  1.0155776207190205e-01  1.2259050022503497e-01  1.4038328982493792e-01  1.5531138301455846e-01  1.6758505748855243e-01  1.7724714023118074e-01  1.8416678439770900e-01  1.8803193414570132e-01  1.8834512673663234e-01  1.8443033074142573e-01  1.7546213952818449e-01  1.6053182540500047e-01  1.3876528901297869e-01  1.0950216708944739e-01  7.2529071476129914e-02  2.8331254540932542e-02  -2.1708424589990030e-02  -7.5258831012599253e-02  -1.2922105600703929e-01  -1.8015538505331968e-01  -2.2486412257548855e-01  -2.6095227222670903e-01  -2.8718050716596272e-01  -3.0351244387962006e-01  -3.1088699492613786e-01  -3.1083957943501556e-01  -3.0511332788669171e-01  -2.9535747326608197e-01  -2.8294760641637173e-01  -2.6891501685544761e-01  -2.5395080304182516e-01  -2.3844924383172472e-01  -2.2256366726153382e-01  -2.0625868662984032e-01  -1.8935121501929600e-01  -1.7153813863804274e-01  -1.5241140875168260e-01  -1.3146248060237209e-01  -1.0807825695903395e-01  -8.1530495876663320e-02  -5.0960259814686396e-02  -1.5358297734964090e-02  2.6458493963083893e-02  7.5878925924255450e-02  1.3456369285095598e-01  -1.2991038124387069e-01  -7.1241170806117804e-02  -2.1826895610958415e-02  1.9934219263151278e-02  5.5370007704870966e-02  8.5583331984852323e-02  1.1147846000087126e-01  1.3377752905933529e-01  1.5303105621500349e-01  1.6962230301288067e-01  1.8376499186324374e-01  1.9549381893634116e-01  2.0464791258227927e-01  2.1084890522695771e-01  2.1347801221675425e-01  2.1166091715118804e-01  2.0427558791581998e-01  1.9000573696774789e-01  1.6746882997761450e-01  1.3544635371961455e-01  9.3225928029097696e-02  4.1020269198015553e-02  -1.9641924954691779e-02  -8.5726594934387182e-02  -1.5288899892334865e-01  -2.1612780955350910e-01  -2.7076094695857872e-01  -3.1338743487969317e-01  -3.4246567959324364e-01  -3.5832873588678832e-01  -3.6272256287036669e-01  -3.5813197502367544e-01  -3.4715707255471662e-01  -3.3208920919965074e-01  -3.1470880348173275e-01  -2.9625201192785450e-01  -2.7747350282806765e-01  -2.5874560922874251e-01  -2.4015683199654778e-01  -2.2159220215738568e-01  -2.0279059223914009e-01  -1.8338049917268873e-01  -1.6289823047408508e-01  -1.4079270322480206e-01  -1.1642045871149785e-01  -8.9033672560413238e-02  -5.7763154260655612e-02  -2.1597356362495407e-02  2.0642082299388229e-02  7.0334573175679427e-02  1.2912283686063480e-01  -1.2370631957208654e-01  -6.4912268763951703e-02  -1.5163203418357484e-02  2.7127122018735652e-02  6.3283368125746503e-02  9.4411190181717966e-02  1.2142490016936837e-01  1.4506329054384348e-01  1.6589922670604876e-01  1.8434197856256732e-01  2.0063109103710555e-01  2.1482014390211182e-01  2.2674905979943188e-01  2.3600479865510471e-01  2.4187302511306072e-01  2.4328874141628956e-01  2.3880321809198168e-01  2.2659854082772024e-01  2.0459799279916618e-01  1.7073271883122226e-01  1.2341533205716555e-01  6.2212979994554156e-02  -1.1413441205343107e-02  -9.3603755532273056e-02  -1.7821804007831751e-01  -2.5782766003350938e-01  -3.2539558219946507e-01  -3.7598159781436702e-01  -4.0772249606596039e-01  -4.2172807745053753e-01  -4.2113836909059899e-01  -4.0991635596521714e-01  -3.9186484061957344e-01  -3.7006986284314158e-01  -3.4672900078841562e-01  -3.2322036536295312e-01  -3.0027410657513015e-01  -2.7815642728977669e-01  -2.5682310006116832e-01  -2.3603026007778491e-01  -2.1540556768527488e-01  -1.9448816627860685e-01  -1.7274615378341371e-01  -1.4957866504002967e-01  -1.2430771216360915e-01  -9.6163278854479853e-02  -6.426392