<?xml version="1.0"?>
<VTKFile type="UnstructuredGrid"  version="0.1"  >
<UnstructuredGrid>
<Piece  NumberOfPoints="2601" NumberOfCells="5000">
<Points>
<DataArray  type="Float64"  NumberOfComponents="3"  format="ascii">0 0 0  0.2 0 0  0.4 0 0  0.6 0 0  0.8 0 0  1 0 0  1.2 0 0  1.4 0 0  1.6 0 0  1.8 0 0  2 0 0  2.2 0 0  2.4 0 0  2.6 0 0  2.8 0 0  3 0 0  3.2 0 0  3.4 0 0  3.6 0 0  3.8 0 0  4 0 0  4.2 0 0  4.4 0 0  4.6 0 0  4.8 0 0  5 0 0  5.2 0 0  5.4 0 0  5.6 0 0  5.8 0 0  6 0 0  6.2 0 0  6.4 0 0  6.6 0 0  6.8 0 0  7 0 0  7.2 0 0  7.4 0 0  7.6 0 0  7.8 0 0  8 0 0  8.199999999999999 0 0  8.4 0 0  8.6 0 0  8.800000000000001 0 0  9 0 0  9.199999999999999 0 0  9.4 0 0  9.6 0 0  9.800000000000001 0 0  10 0 0  0 0.2 0  0.2 0.2 0  0.4 0.2 0  0.6 0.2 0  0.8 0.2 0  1 0.2 0  1.2 0.2 0  1.4 0.2 0  1.6 0.2 0  1.8 0.2 0  2 0.2 0  2.2 0.2 0  2.4 0.2 0  2.6 0.2 0  2.8 0.2 0  3 0.2 0  3.2 0.2 0  3.4 0.2 0  3.6 0.2 0  3.8 0.2 0  4 0.2 0  4.2 0.2 0  4.4 0.2 0  4.6 0.2 0  4.8 0.2 0  5 0.2 0  5.2 0.2 0  5.4 0.2 0  5.6 0.2 0  5.8 0.2 0  6 0.2 0  6.2 0.2 0  6.4 0.2 0  6.6 0.2 0  6.8 0.2 0  7 0.2 0  7.2 0.2 0  7.4 0.2 0  7.6 0.2 0  7.8 0.2 0  8 0.2 0  8.199999999999999 0.2 0  8.4 0.2 0  8.6 0.2 0  8.800000000000001 0.2 0  9 0.2 0  9.199999999999999 0.2 0  9.4 0.2 0  9.6 0.2 0  9.800000000000001 0.2 0  10 0.2 0  0 0.4 0  0.2 0.4 0  0.4 0.4 0  0.6 0.4 0  0.8 0.4 0  1 0.4 0  1.2 0.4 0  1.4 0.4 0  1.6 0.4 0  1.8 0.4 0  2 0.4 0  2.2 0.4 0  2.4 0.4 0  2.6 0.4 0  2.8 0.4 0  3 0.4 0  3.2 0.4 0  3.4 0.4 0  3.6 0.4 0  3.8 0.4 0  4 0.4 0  4.2 0.4 0  4.4 0.4 0  4.6 0.4 0  4.8 0.4 0  5 0.4 0  5.2 0.4 0  5.4 0.4 0  5.6 0.4 0  5.8 0.4 0  6 0.4 0  6.2 0.4 0  6.4 0.4 0  6.6 0.4 0  6.8 0.4 0  7 0.4 0  7.2 0.4 0  7.4 0.4 0  7.6 0.4 0  7.8 0.4 0  8 0.4 0  8.199999999999999 0.4 0  8.4 0.4 0  8.6 0.4 0  8.800000000000001 0.4 0  9 0.4 0  9.199999999999999 0.4 0  9.4 0.4 0  9.6 0.4 0  9.800000000000001 0.4 0  10 0.4 0  0 0.6 0  0.2 0.6 0  0.4 0.6 0  0.6 0.6 0  0.8 0.6 0  1 0.6 0  1.2 0.6 0  1.4 0.6 0  1.6 0.6 0  1.8 0.6 0  2 0.6 0  2.2 0.6 0  2.4 0.6 0  2.6 0.6 0  2.8 0.6 0  3 0.6 0  3.2 0.6 0  3.4 0.6 0  3.6 0.6 0  3.8 0.6 0  4 0.6 0  4.2 0.6 0  4.4 0.6 0  4.6 0.6 0  4.8 0.6 0  5 0.6 0  5.2 0.6 0  5.4 0.6 0  5.6 0.6 0  5.8 0.6 0  6 0.6 0  6.2 0.6 0  6.4 0.6 0  6.6 0.6 0  6.8 0.6 0  7 0.6 0  7.2 0.6 0  7.4 0.6 0  7.6 0.6 0  7.8 0.6 0  8 0.6 0  8.199999999999999 0.6 0  8.4 0.6 0  8.6 0.6 0  8.800000000000001 0.6 0  9 0.6 0  9.199999999999999 0.6 0  9.4 0.6 0  9.6 0.6 0  9.800000000000001 0.6 0  10 0.6 0  0 0.8 0  0.2 0.8 0  0.4 0.8 0  0.6 0.8 0  0.8 0.8 0  1 0.8 0  1.2 0.8 0  1.4 0.8 0  1.6 0.8 0  1.8 0.8 0  2 0.8 0  2.2 0.8 0  2.4 0.8 0  2.6 0.8 0  2.8 0.8 0  3 0.8 0  3.2 0.8 0  3.4 0.8 0  3.6 0.8 0  3.8 0.8 0  4 0.8 0  4.2 0.8 0  4.4 0.8 0  4.6 0.8 0  4.8 0.8 0  5 0.8 0  5.2 0.8 0  5.4 0.8 0  5.6 0.8 0  5.8 0.8 0  6 0.8 0  6.2 0.8 0  6.4 0.8 0  6.6 0.8 0  6.8 0.8 0  7 0.8 0  7.2 0.8 0  7.4 0.8 0  7.6 0.8 0  7.8 0.8 0  8 0.8 0  8.199999999999999 0.8 0  8.4 0.8 0  8.6 0.8 0  8.800000000000001 0.8 0  9 0.8 0  9.199999999999999 0.8 0  9.4 0.8 0  9.6 0.8 0  9.800000000000001 0.8 0  10 0.8 0  0 1 0  0.2 1 0  0.4 1 0  0.6 1 0  0.8 1 0  1 1 0  1.2 1 0  1.4 1 0  1.6 1 0  1.8 1 0  2 1 0  2.2 1 0  2.4 1 0  2.6 1 0  2.8 1 0  3 1 0  3.2 1 0  3.4 1 0  3.6 1 0  3.8 1 0  4 1 0  4.2 1 0  4.4 1 0  4.6 1 0  4.8 1 0  5 1 0  5.2 1 0  5.4 1 0  5.6 1 0  5.8 1 0  6 1 0  6.2 1 0  6.4 1 0  6.6 1 0  6.8 1 0  7 1 0  7.2 1 0  7.4 1 0  7.6 1 0  7.8 1 0  8 1 0  8.199999999999999 1 0  8.4 1 0  8.6 1 0  8.800000000000001 1 0  9 1 0  9.199999999999999 1 0  9.4 1 0  9.6 1 0  9.800000000000001 1 0  10 1 0  0 1.2 0  0.2 1.2 0  0.4 1.2 0  0.6 1.2 0  0.8 1.2 0  1 1.2 0  1.2 1.2 0  1.4 1.2 0  1.6 1.2 0  1.8 1.2 0  2 1.2 0  2.2 1.2 0  2.4 1.2 0  2.6 1.2 0  2.8 1.2 0  3 1.2 0  3.2 1.2 0  3.4 1.2 0  3.6 1.2 0  3.8 1.2 0  4 1.2 0  4.2 1.2 0  4.4 1.2 0  4.6 1.2 0  4.8 1.2 0  5 1.2 0  5.2 1.2 0  5.4 1.2 0  5.6 1.2 0  5.8 1.2 0  6 1.2 0  6.2 1.2 0  6.4 1.2 0  6.6 1.2 0  6.8 1.2 0  7 1.2 0  7.2 1.2 0  7.4 1.2 0  7.6 1.2 0  7.8 1.2 0  8 1.2 0  8.199999999999999 1.2 0  8.4 1.2 0  8.6 1.2 0  8.800000000000001 1.2 0  9 1.2 0  9.199999999999999 1.2 0  9.4 1.2 0  9.6 1.2 0  9.800000000000001 1.2 0  10 1.2 0  0 1.4 0  0.2 1.4 0  0.4 1.4 0  0.6 1.4 0  0.8 1.4 0  1 1.4 0  1.2 1.4 0  1.4 1.4 0  1.6 1.4 0  1.8 1.4 0  2 1.4 0  2.2 1.4 0  2.4 1.4 0  2.6 1.4 0  2.8 1.4 0  3 1.4 0  3.2 1.4 0  3.4 1.4 0  3.6 1.4 0  3.8 1.4 0  4 1.4 0  4.2 1.4 0  4.4 1.4 0  4.6 1.4 0  4.8 1.4 0  5 1.4 0  5.2 1.4 0  5.4 1.4 0  5.6 1.4 0  5.8 1.4 0  6 1.4 0  6.2 1.4 0  6.4 1.4 0  6.6 1.4 0  6.8 1.4 0  7 1.4 0  7.2 1.4 0  7.4 1.4 0  7.6 1.4 0  7.8 1.4 0  8 1.4 0  8.199999999999999 1.4 0  8.4 1.4 0  8.6 1.4 0  8.800000000000001 1.4 0  9 1.4 0  9.199999999999999 1.4 0  9.4 1.4 0  9.6 1.4 0  9.800000000000001 1.4 0  10 1.4 0  0 1.6 0  0.2 1.6 0  0.4 1.6 0  0.6 1.6 0  0.8 1.6 0  1 1.6 0  1.2 1.6 0  1.4 1.6 0  1.6 1.6 0  1.8 1.6 0  2 1.6 0  2.2 1.6 0  2.4 1.6 0  2.6 1.6 0  2.8 1.6 0  3 1.6 0  3.2 1.6 0  3.4 1.6 0  3.6 1.6 0  3.8 1.6 0  4 1.6 0  4.2 1.6 0  4.4 1.6 0  4.6 1.6 0  4.8 1.6 0  5 1.6 0  5.2 1.6 0  5.4 1.6 0  5.6 1.6 0  5.8 1.6 0  6 1.6 0  6.2 1.6 0  6.4 1.6 0  6.6 1.6 0  6.8 1.6 0  7 1.6 0  7.2 1.6 0  7.4 1.6 0  7.6 1.6 0  7.8 1.6 0  8 1.6 0  8.199999999999999 1.6 0  8.4 1.6 0  8.6 1.6 0  8.800000000000001 1.6 0  9 1.6 0  9.199999999999999 1.6 0  9.4 1.6 0  9.6 1.6 0  9.800000000000001 1.6 0  10 1.6 0  0 1.8 0  0.2 1.8 0  0.4 1.8 0  0.6 1.8 0  0.8 1.8 0  1 1.8 0  1.2 1.8 0  1.4 1.8 0  1.6 1.8 0  1.8 1.8 0  2 1.8 0  2.2 1.8 0  2.4 1.8 0  2.6 1.8 0  2.8 1.8 0  3 1.8 0  3.2 1.8 0  3.4 1.8 0  3.6 1.8 0  3.8 1.8 0  4 1.8 0  4.2 1.8 0  4.4 1.8 0  4.6 1.8 0  4.8 1.8 0  5 1.8 0  5.2 1.8 0  5.4 1.8 0  5.6 1.8 0  5.8 1.8 0  6 1.8 0  6.2 1.8 0  6.4 1.8 0  6.6 1.8 0  6.8 1.8 0  7 1.8 0  7.2 1.8 0  7.4 1.8 0  7.6 1.8 0  7.8 1.8 0  8 1.8 0  8.199999999999999 1.8 0  8.4 1.8 0  8.6 1.8 0  8.800000000000001 1.8 0  9 1.8 0  9.199999999999999 1.8 0  9.4 1.8 0  9.6 1.8 0  9.800000000000001 1.8 0  10 1.8 0  0 2 0  0.2 2 0  0.4 2 0  0.6 2 0  0.8 2 0  1 2 0  1.2 2 0  1.4 2 0  1.6 2 0  1.8 2 0  2 2 0  2.2 2 0  2.4 2 0  2.6 2 0  2.8 2 0  3 2 0  3.2 2 0  3.4 2 0  3.6 2 0  3.8 2 0  4 2 0  4.2 2 0  4.4 2 0  4.6 2 0  4.8 2 0  5 2 0  5.2 2 0  5.4 2 0  5.6 2 0  5.8 2 0  6 2 0  6.2 2 0  6.4 2 0  6.6 2 0  6.8 2 0  7 2 0  7.2 2 0  7.4 2 0  7.6 2 0  7.8 2 0  8 2 0  8.199999999999999 2 0  8.4 2 0  8.6 2 0  8.800000000000001 2 0  9 2 0  9.199999999999999 2 0  9.4 2 0  9.6 2 0  9.800000000000001 2 0  10 2 0  0 2.2 0  0.2 2.2 0  0.4 2.2 0  0.6 2.2 0  0.8 2.2 0  1 2.2 0  1.2 2.2 0  1.4 2.2 0  1.6 2.2 0  1.8 2.2 0  2 2.2 0  2.2 2.2 0  2.4 2.2 0  2.6 2.2 0  2.8 2.2 0  3 2.2 0  3.2 2.2 0  3.4 2.2 0  3.6 2.2 0  3.8 2.2 0  4 2.2 0  4.2 2.2 0  4.4 2.2 0  4.6 2.2 0  4.8 2.2 0  5 2.2 0  5.2 2.2 0  5.4 2.2 0  5.6 2.2 0  5.8 2.2 0  6 2.2 0  6.2 2.2 0  6.4 2.2 0  6.6 2.2 0  6.8 2.2 0  7 2.2 0  7.2 2.2 0  7.4 2.2 0  7.6 2.2 0  7.8 2.2 0  8 2.2 0  8.199999999999999 2.2 0  8.4 2.2 0  8.6 2.2 0  8.800000000000001 2.2 0  9 2.2 0  9.199999999999999 2.2 0  9.4 2.2 0  9.6 2.2 0  9.800000000000001 2.2 0  10 2.2 0  0 2.4 0  0.2 2.4 0  0.4 2.4 0  0.6 2.4 0  0.8 2.4 0  1 2.4 0  1.2 2.4 0  1.4 2.4 0  1.6 2.4 0  1.8 2.4 0  2 2.4 0  2.2 2.4 0  2.4 2.4 0  2.6 2.4 0  2.8 2.4 0  3 2.4 0  3.2 2.4 0  3.4 2.4 0  3.6 2.4 0  3.8 2.4 0  4 2.4 0  4.2 2.4 0  4.4 2.4 0  4.6 2.4 0  4.8 2.4 0  5 2.4 0  5.2 2.4 0  5.4 2.4 0  5.6 2.4 0  5.8 2.4 0  6 2.4 0  6.2 2.4 0  6.4 2.4 0  6.6 2.4 0  6.8 2.4 0  7 2.4 0  7.2 2.4 0  7.4 2.4 0  7.6 2.4 0  7.8 2.4 0  8 2.4 0  8.199999999999999 2.4 0  8.4 2.4 0  8.6 2.4 0  8.800000000000001 2.4 0  9 2.4 0  9.199999999999999 2.4 0  9.4 2.4 0  9.6 2.4 0  9.800000000000001 2.4 0  10 2.4 0  0 2.6 0  0.2 2.6 0  0.4 2.6 0  0.6 2.6 0  0.8 2.6 0  1 2.6 0  1.2 2.6 0  1.4 2.6 0  1.6 2.6 0  1.8 2.6 0  2 2.6 0  2.2 2.6 0  2.4 2.6 0  2.6 2.6 0  2.8 2.6 0  3 2.6 0  3.2 2.6 0  3.4 2.6 0  3.6 2.6 0  3.8 2.6 0  4 2.6 0  4.2 2.6 0  4.4 2.6 0  4.6 2.6 0  4.8 2.6 0  5 2.6 0  5.2 2.6 0  5.4 2.6 0  5.6 2.6 0  5.8 2.6 0  6 2.6 0  6.2 2.6 0  6.4 2.6 0  6.6 2.6 0  6.8 2.6 0  7 2.6 0  7.2 2.6 0  7.4 2.6 0  7.6 2.6 0  7.8 2.6 0  8 2.6 0  8.199999999999999 2.6 0  8.4 2.6 0  8.6 2.6 0  8.800000000000001 2.6 0  9 2.6 0  9.199999999999999 2.6 0  9.4 2.6 0  9.6 2.6 0  9.800000000000001 2.6 0  10 2.6 0  0 2.8 0  0.2 2.8 0  0.4 2.8 0  0.6 2.8 0  0.8 2.8 0  1 2.8 0  1.2 2.8 0  1.4 2.8 0  1.6 2.8 0  1.8 2.8 0  2 2.8 0  2.2 2.8 0  2.4 2.8 0  2.6 2.8 0  2.8 2.8 0  3 2.8 0  3.2 2.8 0  3.4 2.8 0  3.6 2.8 0  3.8 2.8 0  4 2.8 0  4.2 2.8 0  4.4 2.8 0  4.6 2.8 0  4.8 2.8 0  5 2.8 0  5.2 2.8 0  5.4 2.8 0  5.6 2.8 0  5.8 2.8 0  6 2.8 0  6.2 2.8 0  6.4 2.8 0  6.6 2.8 0  6.8 2.8 0  7 2.8 0  7.2 2.8 0  7.4 2.8 0  7.6 2.8 0  7.8 2.8 0  8 2.8 0  8.199999999999999 2.8 0  8.4 2.8 0  8.6 2.8 0  8.800000000000001 2.8 0  9 2.8 0  9.199999999999999 2.8 0  9.4 2.8 0  9.6 2.8 0  9.800000000000001 2.8 0  10 2.8 0  0 3 0  0.2 3 0  0.4 3 0  0.6 3 0  0.8 3 0  1 3 0  1.2 3 0  1.4 3 0  1.6 3 0  1.8 3 0  2 3 0  2.2 3 0  2.4 3 0  2.6 3 0  2.8 3 0  3 3 0  3.2 3 0  3.4 3 0  3.6 3 0  3.8 3 0  4 3 0  4.2 3 0  4.4 3 0  4.6 3 0  4.8 3 0  5 3 0  5.2 3 0  5.4 3 0  5.6 3 0  5.8 3 0  6 3 0  6.2 3 0  6.4 3 0  6.6 3 0  6.8 3 0  7 3 0  7.2 3 0  7.4 3 0  7.6 3 0  7.8 3 0  8 3 0  8.199999999999999 3 0  8.4 3 0  8.6 3 0  8.800000000000001 3 0  9 3 0  9.199999999999999 3 0  9.4 3 0  9.6 3 0  9.800000000000001 3 0  10 3 0  0 3.2 0  0.2 3.2 0  0.4 3.2 0  0.6 3.2 0  0.8 3.2 0  1 3.2 0  1.2 3.2 0  1.4 3.2 0  1.6 3.2 0  1.8 3.2 0  2 3.2 0  2.2 3.2 0  2.4 3.2 0  2.6 3.2 0  2.8 3.2 0  3 3.2 0  3.2 3.2 0  3.4 3.2 0  3.6 3.2 0  3.8 3.2 0  4 3.2 0  4.2 3.2 0  4.4 3.2 0  4.6 3.2 0  4.8 3.2 0  5 3.2 0  5.2 3.2 0  5.4 3.2 0  5.6 3.2 0  5.8 3.2 0  6 3.2 0  6.2 3.2 0  6.4 3.2 0  6.6 3.2 0  6.8 3.2 0  7 3.2 0  7.2 3.2 0  7.4 3.2 0  7.6 3.2 0  7.8 3.2 0  8 3.2 0  8.199999999999999 3.2 0  8.4 3.2 0  8.6 3.2 0  8.800000000000001 3.2 0  9 3.2 0  9.199999999999999 3.2 0  9.4 3.2 0  9.6 3.2 0  9.800000000000001 3.2 0  10 3.2 0  0 3.4 0  0.2 3.4 0  0.4 3.4 0  0.6 3.4 0  0.8 3.4 0  1 3
[...]
<PointData  Scalars="f_6"> 
<DataArray  type="Float64"  Name="f_6"  format="ascii">1.1607074530742560e+00  1.2926282560957005e+00  1.4809452471825613e+00  1.7092307252743446e+00  1.9592454895614790e+00  2.2154780229280502e+00  2.4665766060938927e+00  2.7052824757819387e+00  2.9276572949024953e+00  3.1321000886355419e+00  3.3184548269218768e+00  3.4873433653051222e+00  3.6397375344201595e+00  3.7767195103746372e+00  3.8993652163172889e+00  4.0086954417088574e+00  4.1056573249852963e+00  4.1911155943944527e+00  4.2658448519363263e+00  4.3305208107419606e+00  4.3857110405762025e+00  4.4318659482641021e+00  4.4693097612400141e+00  4.4982303175276259e+00  4.5186663921269661e+00  4.5304925426169520e+00  4.5334038853928682e+00  4.5269059538424008e+00  4.5103164971960457e+00  4.4827857084741174e+00  4.4433386167594797e+00  4.3909389715183558e+00  4.3245693650423593e+00  4.2433190467800559e+00  4.1464697984207053e+00  4.0335715368264333e+00  3.9045025112781802e+00  3.7595134390080842e+00  3.5992604131397372e+00  3.4248378014112637e+00  3.2378328045240909e+00  3.0404278564719678e+00  2.8355869612147404e+00  2.6273537051739391e+00  2.4212402286503720e+00  2.2246075915242347e+00  2.0468282980625196e+00  1.8989640963336203e+00  1.7927066285403954e+00  1.7384481643740497e+00  1.7403049359626641e+00  1.0416796411481060e+00  1.1479853201099761e+00  1.3153935574186442e+00  1.5282135741517717e+00  1.7668590621246625e+00  2.0142173139844730e+00  2.2577654152039917e+00  2.4896144686147959e+00  2.7055859682350394e+00  2.9040368152339471e+00  3.0848342709290790e+00  3.2486245931264910e+00  3.3963848314037208e+00  3.5291851164463632e+00  3.6480800349218532e+00  3.7540667206111760e+00  3.8480704955746439e+00  3.9309378057276514e+00  4.0034287224092830e+00  4.0662079349047886e+00  4.1198357240703238e+00  4.1647605085704393e+00  4.2013134108554828e+00  4.2297038073396322e+00  4.2500137862694753e+00  4.2621894543064043e+00  4.2660284919623033e+00  4.2611660723461862e+00  4.2470642790253148e+00  4.2230122007343187e+00  4.1881438020651922e+00  4.1414780505714903e+00  4.0819813823581583e+00  4.0086478144645490e+00  3.9205883985558541e+00  3.8171203787460497e+00  3.6978476942615597e+00  3.5627281546679246e+00  3.4121283899182022e+00  3.2468754875678756e+00  3.0683236138903065e+00  2.8784666319601251e+00  2.6801293516753231e+00  2.4772655446727709e+00  2.2753522530206749e+00  2.0817827361201910e+00  1.9060581099851159e+00  1.7594956497697560e+00  1.6542539629128756e+00  1.6018704382473807e+00  1.6125159440668406e+00  9.4183114039328542e-01  1.0288585184770340e+00  1.1709634585981330e+00  1.3631963106959282e+00  1.5866946269017197e+00  1.8229906052232714e+00  2.0579568885947208e+00  2.2825331917389424e+00  2.4919121285306005e+00  2.6842120408898489e+00  2.8592594471977133e+00  3.0177248390069620e+00  3.1606101953442320e+00  3.2889911081587844e+00  3.4039102187430914e+00  3.5063433857920177e+00  3.5971923496549927e+00  3.6772818344893636e+00  3.7473537269052124e+00  3.8080582592603291e+00  3.8599447140033045e+00  3.9034541812928678e+00  3.9389156800001537e+00  3.9665452767199589e+00  3.9864462732796131e+00  3.9986075825291607e+00  4.0028976434715702e+00  3.9990529877504368e+00  3.9866635857410970e+00  3.9651604722184377e+00  3.9338134872012347e+00  3.8917470072797928e+00  3.8379789028419000e+00  3.7714833324662727e+00  3.6912728657898168e+00  3.5964915577802361e+00  3.4865092550222698e+00  3.3610092014599671e+00  3.2200660190818122e+00  3.0642192526065180e+00  2.8945584887708615e+00  2.7128477184003441e+00  2.5217264474103014e+00  2.3250123008494015e+00  2.1280951595821089e+00  1.9383355721582138e+00  1.7652695185431584e+00  1.6203467204234869e+00  1.5159871862054455e+00  1.4642033799454777e+00  1.4763205686238015e+00  8.5592767333091491e-01  9.2870782037887822e-01  1.0516358944109132e+00  1.2191077558495940e+00  1.4225756116188759e+00  1.6442634169085582e+00  1.8686717839277378e+00  2.0851322484224029e+00  2.2876699872771455e+00  2.4737810377399874e+00  2.6430594362047866e+00  2.7961392355495467e+00  2.9340491140109517e+00  3.0578907178592614e+00  3.1687125397692859e+00  3.2674786227490578e+00  3.3550695736760696e+00  3.4322867849416934e+00  3.4998507616944519e+00  3.5583939108352718e+00  3.6084513571810910e+00  3.6504533734125952e+00  3.6847216863503172e+00  3.7114701531385865e+00  3.7308085280956544e+00  3.7427465534884359e+00  3.7471948657540444e+00  3.7439597538973000e+00  3.7327309016615211e+00  3.7130646558668055e+00  3.6843690668621258e+00  3.6458994125522119e+00  3.5967729101753432e+00  3.5360083973676892e+00  3.4625917263970543e+00  3.3755621879955875e+00  3.2741113803610440e+00  3.1576851167829516e+00  3.0260821066668693e+00  2.8795505313180905e+00  2.7188947951992049e+00  2.5456178595557977e+00  2.3621333920564345e+00  2.1720775104025400e+00  1.9807070720049722e+00  1.7952981906007821e+00  1.6253578400802267e+00  1.4823777430540697e+00  1.3789236266243905e+00  1.3272900243253920e+00  1.3393033170290156e+00  7.8014094410649359e-01  8.4230121703910577e-01  9.5085691013827711e-01  1.0994750715203070e+00  1.2789610306753185e+00  1.4813958193989119e+00  1.6919228734929199e+00  1.8984823755754030e+00  2.0934941213671974e+00  2.2732998700088398e+00  2.4368857675039455e+00  2.5846644898361824e+00  2.7176350541500094e+00  2.8369291005028812e+00  2.9436223742748329e+00  3.0386850737915920e+00  3.1229861618521433e+00  3.1973062774719971e+00  3.2623432290427132e+00  3.3187088218288272e+00  3.3669211209759982e+00  3.4073968557725358e+00  3.4404473200158510e+00  3.4662792260660100e+00  3.4850000788250681e+00  3.4966259132964748e+00  3.5010879373792756e+00  3.4982341854828216e+00  3.4878231889539979e+00  3.4695092145919242e+00  3.4428224416835644e+00  3.4071513473185089e+00  3.3617370093197954e+00  3.3056887049719546e+00  3.2380267550884669e+00  3.1577531079519314e+00  3.0639446098452257e+00  2.9558604879777994e+00  2.8330561138297883e+00  2.6955006785845685e+00  2.5437069026937262e+00  2.3788944330758901e+00  2.2032189760046883e+00  2.0200939189290086e+00  1.8345969363939760e+00  1.6538729465931241e+00  1.4873480028265651e+00  1.3464942924987700e+00  1.2439401620928181e+00  1.1921609284178041e+00  1.2033124584900425e+00  7.1213630949305262e-01  7.6581694115116272e-01  8.6340456962674217e-01  9.9773588413891412e-01  1.1589230330152693e+00  1.3383732815145910e+00  1.5306037888397570e+00  1.7241418768400654e+00  1.9100038984742536e+00  2.0829418146330809e+00  2.2408123759267844e+00  2.3834425392295473e+00  2.5116248497336420e+00  2.6264692238611635e+00  2.7290846279988550e+00  2.8204693893393591e+00  2.9014988244275246e+00  2.9729423242706661e+00  3.0354778025018092e+00  3.0896955952346081e+00  3.1360945207009676e+00  3.1750754816742490e+00  3.2069371661495376e+00  3.2318764335229306e+00  3.2499939191216605e+00  3.2613035141899136e+00  3.2657428034256739e+00  3.2631805131724878e+00  3.2534169349646556e+00  3.2361746781649421e+00  3.2110801475039255e+00  3.1776402711443010e+00  3.1352229723641933e+00  3.0830520187624684e+00  3.0202259801647378e+00  2.9457670427466423e+00  2.8586996912243601e+00  2.7581540745583104e+00  2.6434867509912965e+00  2.5144144784887663e+00  2.3711654423088961e+00  2.2146652744554127e+00  2.0467861823212674e+00  1.8706840504785842e+00  1.6912136917729805e+00  1.5153402993744536e+00  1.3523606293670105e+00  1.2136763479672696e+00  1.1119231053001948e+00  1.0596881179804447e+00  1.0693785869604466e+00  6.5069959166612623e-01  6.9692850304581067e-01  7.8548071209996184e-01  9.0870327000802620e-01  1.0559202565385397e+00  1.2178426183962063e+00  1.3882604153778515e+00  1.5645791284062207e+00  1.7383520561313726e+00  1.9029303296225724e+00  2.0546117984901384e+00  2.1921298994634424e+00  2.3157193601548944e+00  2.4263003727527352e+00  2.5249679868910784e+00  2.6127563359060182e+00  2.6905693548345573e+00  2.7591830770514192e+00  2.8192650492953391e+00  2.8713872604853159e+00  2.9160289940496575e+00  2.9535738549193562e+00  2.9843063599482860e+00  3.0084119583279674e+00  3.0259821708180938e+00  3.0370244558090054e+00  3.0414746374148329e+00  3.0392083798589069e+00  3.0300474729573303e+00  3.0137570943090912e+00  2.9900321637125047e+00  2.9584743858444296e+00  2.9185659298578353e+00  2.8696494807094335e+00  2.8109259860815885e+00  2.7414798642723235e+00  2.6603369817200648e+00  2.5665551062798500e+00  2.4593424719956558e+00  2.3382003100766142e+00  2.2030913401086933e+00  2.0546475170679095e+00  1.8944409437733065e+00  1.7253393601956477e+00  1.5519353542287735e+00  1.3809665221129883e+00  1.2215485509480719e+00  1.0849635655990135e+00  9.8380821083104808e-01  9.3073925963616799e-01  9.3836924228659291e-01  5.9523580592935699e-01  6.3442991563418694e-01  7.1478644357701537e-01  8.2863405583865790e-01  9.6484324480617056e-01  1.1133338653127591e+00  1.2671685123180660e+00  1.4229624440541142e+00  1.5806541966475507e+00  1.7340958882205773e+00  1.8782044556131516e+00  2.0101992944935700e+00  2.1292656531423857e+00  2.2357969196626288e+00  2.3307153056078413e+00  2.4150479352214682e+00  2.4897363749810437e+00  2.5555855850854869e+00  2.6132704132874172e+00  2.6633540599709233e+00  2.7062997884724975e+00  2.7424742838211338e+00  2.7721472033770920e+00  2.7954917715859731e+00  2.8125894506567639e+00  2.8234394568169354e+00  2.8279718648971457e+00  2.8260614409466198e+00  2.8175382442893504e+00  2.8021907733732201e+00  2.7797584090892058e+00  2.7499123952075215e+00  2.7122284688898164e+00  2.6661586163635396e+00  2.6110127950239943e+00  2.5459623993255489e+00  2.4700750687461221e+00  2.3823858552306971e+00  2.2820050062206141e+00  2.1682606606827961e+00  2.0408780346697046e+00  1.9002054339041072e+00  1.7475066236235670e+00  1.5853367304044430e+00  1.4179883008314389e+00  1.2519255108440299e+00  1.0960299128373576e+00  9.6140992234263201e-01  8.6057713939896741e-01  8.0622290387245432e-01  8.1114430094493661e-01  5.4538983612202185e-01  5.7773372592666450e-01  6.5014142279237674e-01  7.5528535021797583e-01  8.8204404603702968e-01  1.0198664423533843e+00  1.1609891767846077e+00  1.3012606065098711e+00  1.4397732188846404e+00  1.5782841318117100e+00  1.7121923071223017e+00  1.8373715561876589e+00  1.9515483182639966e+00  2.0541154287315941e+00  2.1455002859696135e+00  2.2265732226841335e+00  2.2982746262789218e+00  2.3614483698782296e+00  2.4167986608350298e+00  2.4648972518005827e+00  2.5062009681652171e+00  2.5410635154463312e+00  2.5697407644741110e+00  2.5923938106436735e+00  2.6090939590861089e+00  2.6198317870845425e+00  2.6245301642902685e+00  2.6230591983741114e+00  2.6152496616942060e+00  2.6009007497658772e+00  2.5797783069509443e+00  2.5516012132097514e+00  2.5160166400221695e+00  2.4725689767426577e+00  2.4206713898240020e+00  2.3595918246220644e+00  2.2884655472427342e+00  2.2063438130210655e+00  2.1122841745888770e+00  2.0054849344411236e+00  1.8854670775272355e+00  1.7523128356956323e+00  1.6069768796371811e+00  1.4516829090272572e+00  1.2903889364104804e+00  1.1292387505564128e+00  9.7682637313887333e-01  8.4402898006141425e-01  7.4322006528743412e-01  6.8708900757674429e-01  6.8860230636863484e-01  5.0084522317048952e-01  5.2649154008854382e-01  5.9097947212619228e-01  6.8752373672016265e-01  8.0536580296046856e-01  9.3392746597199916e-01  1.0649198937932154e+00  1.1933215743699876e+00  1.3174296893814708e+00  1.4381177641348617e+00  1.5582251793546011e+00  1.6741034804900758e+00  1.7821799953693673e+00  1.8804504485291498e+00  1.9683929293388753e+00  2.0464147208911969e+00  2.1153143745864700e+00  2.1759395628256462e+00  2.2290344843428276e+00  2.2752010562473770e+00  2.3149065754167530e+00  2.3485013407577626e+00  2.3762317900067180e+00  2.3982486286139246e+00  2.4146138219347355e+00  2.4253098279877667e+00  2.4302523382960182e+00  2.4293055708449853e+00  2.4222973763725646e+00  2.4090303366189416e+00  2.3892848271495080e+00  2.3628108727707042e+00  2.3293077843330008e+00  2.2883939732976155e+00  2.2395734771457989e+00  2.1822096067902246e+00  2.1155184476944155e+00  2.0385948278179749e+00  1.9504810784425479e+00  1.8502861723454418e+00  1.7373621803441781e+00  1.6115480900071497e+00  1.4734949915525133e+00  1.3250815974116530e+00  1.1698997702531171e+00  1.0137263296089616e+00  8.6481043146655123e-01  7.3373765439728178e-01  6.3268476415312302e-01  5.7429362845809429e-01  5.7168159344418945e-01  4.6125521123492608e-01  4.8039293149865631e-01  5.3696901576963429e-01  6.2481833719334612e-01  7.3374069294536226e-01  8.5347081988031681e-01  9.7561478059380558e-01  1.0945596924061771e+00  1.2077015028286158e+00  1.3151130212231765e+00  1.4187336246159326e+00  1.5219036602722389e+00  1.6215337411520570e+00  1.7143736502486799e+00  1.7985695559507093e+00  1.8736315515018511e+00  1.9399263307598393e+00  1.9981738198489747e+00  2.0491265226478834e+00  2.0934275099950366e+00  2.1315755154041423e+00  2.1639337996324866e+00  2.1907488705116949e+00  2.2121657536146793e+00  2.2282393977953299e+00  2.2389455618392331e+00  2.2441937448162168e+00  2.2438425555187758e+00  2.2377157533073344e+00  2.2256156773378266e+00  2.2073301380762147e+00  2.1826291711630472e+00  2.1512495280178481e+00  2.1128674385035846e+00  2.0670638394044882e+00  2.0132903848450505e+00  1.9508481440291090e+00  1.8788928968326124e+00  1.7964809022053581e+00  1.7026676855521579e+00  1.5966715115580963e+00  1.4781144007439091e+00  1.3473546722928800e+00  1.2059175033262859e+00  1.0569999776525565e+00  9.0596537868248794e-01  7.6065799861267902e-01  6.3130459585492493e-01  5.2982111192585735e-01  4.6874844476970939e-01  4.6132509465226290e-01  4.2624071136465619e-01  4.3909669815697100e-01  4.8781301173348557e-01  5.6686299752568126e-01  6.6668308202275961e-01  7.7750646100553944e-01  8.9115437826220545e-01  1.0018169446603931e+00  1.1062453562550087e+00  1.2036053878558628e+00  1.2950560746030937e+00  1.3830390926335177e+00  1.4710098767176847e+00  1.5562120094202740e+00  1.6356022817810540e+00  1.7074258891579182e+00  1.7712048768195141e+00  1.8272581358846218e+00  1.8762240552166807e+00  1.9187583759283018e+00  1.9554023633198601e+00  1.9865523735677875e+00  2.0124706960549781e+00  2.0333060242113548e+00  2.0491112623030641e+00  2.0598582497385576e+00  2.0654521497091074e+00  2.0657472178670191e+00  2.0605634520919600e+00  2.0497016593840227e+00  2.0329533432548912e+00  2.0101016574066648e+00  1.9809105989305837e+00  1.9451016331306159e+00  1.9023199911473019e+00  1.8520967587679502e+00  1.7938169876911714e+00  1.7267075554301892e+00  1.6498606262736442e+00  1.5623092629553663e+00  1.4631718107910017e+00  1.3518821041350433e+00  1.2285214568489164e+00  1.0942583283426799e+00  9.5187010972771757e-01  8.0626061308221830e-01  6.6480629672468328e-01  5.3730200906954750e-01  4.3532879920645340e-01  3.7126483221644879e-01  3.5842967835993250e-01  3.9540820792831405e-01  4.0222902572406738e-01  4.4318147127957380e-01  5.1337942056839880e-01  6.0391700115690261e-01  7.0559845970215651e-01  8.1063157629828475e-01  9.1330785493706290e-01  1.0101017637478187e+00  1.0995075872770812e+00  1.1817999313648848e+00  1.2586822789408902e+00  1.3327243081895253e+00  1.4072728257816123e+00  1.4797903719540990e+00  1.5473909185582246e+00  1.6083999202657753e+00  1.6623447403654079e+00  1.7094935964656337e+00  1.7504016535817297e+00  1.7856272462887275e+00  1.8156108089003504e+00  1.8406495446345801e+00  1.8609107483825729e+00  1.8764543652653689e+00  1.8872534220910018e+00  1.8932118173808485e+00  1.8941815434178806e+00  1.8899801369861056e+00  1.8804070307024583e+00  1.8652558308507239e+00  1.8443188559962318e+00  1.8173806868403501e+00  1.7841989566253631e+00  1.7444730895717988e+00  1.6978051240667309e+00  1.6436608717535919e+00  1.5813439536617351e+00  1.5099990512386117e+00  1.4286635331308271e+00  1.3363884070973553e+00  1.2324504363502009e+00  1.1166750128182892e+00  9.8987719086215464e-01  8.5439514836737918e-01  7.1462960410372467e-01  5.7742433438893692e-01  4.5206303250407559e-01  3.4970848780480868e-01  2.8250105714781487e-01  2.6378998353374528e-01  3.6836686227158305e-01  3.6940153470286369e-01  4.0271065191331346e-01  4.6405263630283672e-01  5.4518530089898121e-01  6.3750196371317347e-01  7.3366001626801525e-01  8.2820802865344179e-01  9.1762031310867398e-01  1.0000621078145739e+00  1.0751394093682463e+00  1.1437177827718510e+00  1.2076857137259414e+00  1.2695227633219257e+00  1.3323517700856458e+00  1.3938039859515727e+00  1.4511328075739769e+00  1.5027387217581953e+00  1.5481525083221730e+00  1.5875904400179399e+00  1.6215239282012164e+00  1.6504149010103244e+00  1.6746061586060224e+00  1.6943015734631677e+00  1.7095821636136326e+00  1.7204308421465142e+00  1.7267553308370633e+00  1.7284085261656785e+00  1.7252075974126659e+00  1.7169517060082609e+00  1.7034363261622310e+00  1.6844608906812706e+00  1.6598263423108832e+00  1.6293201339293386e+00  1.5926881901077259e+00  1.5495962936328742e+00  1.4995872017256053e+00  1.4420443311304569e+00  1.3761776831341195e+00  1.3010522908935460e+00  1.2156832745394639e+00  1.1192238615694683e+00  1.0112705913273643e+00  8.9229658792827049e-01  7.6418928099414984e-01  6.3080796986497145e-01  4.9839961905818025e-01  3.7565288263613955e-01  2.7321928987479677e-01  2.0291328063075206e-01  1.7804548087063868e-01  3.4473859027738196e-01  3.4022846045000005e-01  3.6602175208501625e-01  4.1853221902759635e-01  4.9018971989741106e-01  5.7298094837486235e-01  6.6002429250769012e-01  7.4617776680797687e-01  8.2805605229941026e-01  9.0375120735406000e-01  9.7251841575275333e-01  1.0345822504006870e+00  1.0910561473382745e+00  1.1438036755815859e+00  1.1951002698526014e+00  1.2477913574794919e+00  1.2996582155019853e+00  1.3480896042014121e+00  1.3915609252773034e+00  1.4296064288506323e+00  1.4623905383415046e+00  1.4903020440941237e+00  1.5137095300405943e+00  1.5328636718383279e+00  1.5478832397431312e+00  1.5587740376432806e+00  1.5654557832957214e+00  1.5677871705512130e+00  1.5655880484380449e+00  1.5586591616456069e+00  1.5467985181448574e+00  1.5298118382605861e+00  1.5075137989843497e+00  1.4797171874168167e+00  1.4462085488815788e+00  1.4067114080015100e+00  1.3608416084441997e+00  1.3080637497667744e+00  1.2476629925066425e+00  1.1787523354412710e+00  1.1003411143145903e+00  1.0114946329678680e+00  9.1161389473946697e-01  8.0085124734095536e-01  6.8064279975891162e-01  5.5427744290563941e-01  4.2734616628551636e-01  3.0785750852954791e-01  2.0585096028755251e-01  1.3271343015871398e-01  1.0163154269677918e-01  3.2416169509423609e-01  3.1433675958306634e-01  3.3273839879028538e-01  3.7645205477550209e-01  4.3859480007651658e-01  5.1175396832938547e-01  5.8950806391594257e-01  6.6702820245212047e-01  7.4111188612729684e-01  8.0990491508256890e-01  8.7254811508757635e-01  9.2891881769327012e-01  9.7953375261827214e-01  1.0255534728134854e+00  1.0687060517342735e+00  1.1110084131581470e+00  1.1550062736355078e+00  1.1986262269251216e+00  1.2393938798409396e+00  1.2758617337140676e+00  1.3075691163371124e+00  1.3346303758960316e+00  1.3573547382972437e+00  1.3760225652509444e+00  1.3908000156207860e+00  1.4017310375797796e+00  1.4087591920192502e+00  1.4117564624853356e+00  1.4105498823563112e+00  1.4049444771200736e+00  1.3947421612447175e+00  1.3797549505798794e+00  1.3598096807749847e+00  1.3347412154506335e+00  1.3043720561839312e+00  1.2684782985127521e+00  1.2267449480092685e+00  1.1787177698259277e+00  1.1237641826750282e+00  1.0610621701597018e+00  9.8964318209902902e-01  9.0852105719374165e-01  8.1693998628047182e-01  7.1476283926947137e-01  6.0298718604557255e-01  4.8431615109952220e-01  3.6363601782536287e-01  2.4819439374842103e-01  1.4731437779832529e-01  7.1842307279701673e-02  3.4737600979093022e-02  3.0629058892400607e-01  2.9136974723876929e-01  3.0249684081201439e-01  3.3744821681375670e-01  3.9004881933486657e-01  4.5350092676784964e-01  5.2184586576370429e-01  5.9056063635682310e-01  6.5662224715274509e-01  7.1826450089533445e-01  7.7462889373168120e-01  8.2546354318881965e-01  8.7095831564796533e-01  9.1173038149814811e-0