<?xml version="1.0"?>
<VTKFile type="UnstructuredGrid"  version="0.1"  >
<UnstructuredGrid>
<Piece  NumberOfPoints="5101" NumberOfCells="10000">
<Points>
<DataArray  type="Float64"  NumberOfComponents="3"  format="ascii">0 0 0  0.2 0 0  0.4 0 0  0.6 0 0  0.8 0 0  1 0 0  1.2 0 0  1.4 0 0  1.6 0 0  1.8 0 0  2 0 0  2.2 0 0  2.4 0 0  2.6 0 0  2.8 0 0  3 0 0  3.2 0 0  3.4 0 0  3.6 0 0  3.8 0 0  4 0 0  4.2 0 0  4.4 0 0  4.6 0 0  4.8 0 0  5 0 0  5.2 0 0  5.4 0 0  5.6 0 0  5.8 0 0  6 0 0  6.2 0 0  6.4 0 0  6.6 0 0  6.8 0 0  7 0 0  7.2 0 0  7.4 0 0  7.6 0 0  7.8 0 0  8 0 0  8.199999999999999 0 0  8.4 0 0  8.6 0 0  8.800000000000001 0 0  9 0 0  9.199999999999999 0 0  9.4 0 0  9.6 0 0  9.800000000000001 0 0  10 0 0  0 0.2 0  0.2 0.2 0  0.4 0.2 0  0.6 0.2 0  0.8 0.2 0  1 0.2 0  1.2 0.2 0  1.4 0.2 0  1.6 0.2 0  1.8 0.2 0  2 0.2 0  2.2 0.2 0  2.4 0.2 0  2.6 0.2 0  2.8 0.2 0  3 0.2 0  3.2 0.2 0  3.4 0.2 0  3.6 0.2 0  3.8 0.2 0  4 0.2 0  4.2 0.2 0  4.4 0.2 0  4.6 0.2 0  4.8 0.2 0  5 0.2 0  5.2 0.2 0  5.4 0.2 0  5.6 0.2 0  5.8 0.2 0  6 0.2 0  6.2 0.2 0  6.4 0.2 0  6.6 0.2 0  6.8 0.2 0  7 0.2 0  7.2 0.2 0  7.4 0.2 0  7.6 0.2 0  7.8 0.2 0  8 0.2 0  8.199999999999999 0.2 0  8.4 0.2 0  8.6 0.2 0  8.800000000000001 0.2 0  9 0.2 0  9.199999999999999 0.2 0  9.4 0.2 0  9.6 0.2 0  9.800000000000001 0.2 0  10 0.2 0  0 0.4 0  0.2 0.4 0  0.4 0.4 0  0.6 0.4 0  0.8 0.4 0  1 0.4 0  1.2 0.4 0  1.4 0.4 0  1.6 0.4 0  1.8 0.4 0  2 0.4 0  2.2 0.4 0  2.4 0.4 0  2.6 0.4 0  2.8 0.4 0  3 0.4 0  3.2 0.4 0  3.4 0.4 0  3.6 0.4 0  3.8 0.4 0  4 0.4 0  4.2 0.4 0  4.4 0.4 0  4.6 0.4 0  4.8 0.4 0  5 0.4 0  5.2 0.4 0  5.4 0.4 0  5.6 0.4 0  5.8 0.4 0  6 0.4 0  6.2 0.4 0  6.4 0.4 0  6.6 0.4 0  6.8 0.4 0  7 0.4 0  7.2 0.4 0  7.4 0.4 0  7.6 0.4 0  7.8 0.4 0  8 0.4 0  8.199999999999999 0.4 0  8.4 0.4 0  8.6 0.4 0  8.800000000000001 0.4 0  9 0.4 0  9.199999999999999 0.4 0  9.4 0.4 0  9.6 0.4 0  9.800000000000001 0.4 0  10 0.4 0  0 0.6 0  0.2 0.6 0  0.4 0.6 0  0.6 0.6 0  0.8 0.6 0  1 0.6 0  1.2 0.6 0  1.4 0.6 0  1.6 0.6 0  1.8 0.6 0  2 0.6 0  2.2 0.6 0  2.4 0.6 0  2.6 0.6 0  2.8 0.6 0  3 0.6 0  3.2 0.6 0  3.4 0.6 0  3.6 0.6 0  3.8 0.6 0  4 0.6 0  4.2 0.6 0  4.4 0.6 0  4.6 0.6 0  4.8 0.6 0  5 0.6 0  5.2 0.6 0  5.4 0.6 0  5.6 0.6 0  5.8 0.6 0  6 0.6 0  6.2 0.6 0  6.4 0.6 0  6.6 0.6 0  6.8 0.6 0  7 0.6 0  7.2 0.6 0  7.4 0.6 0  7.6 0.6 0  7.8 0.6 0  8 0.6 0  8.199999999999999 0.6 0  8.4 0.6 0  8.6 0.6 0  8.800000000000001 0.6 0  9 0.6 0  9.199999999999999 0.6 0  9.4 0.6 0  9.6 0.6 0  9.800000000000001 0.6 0  10 0.6 0  0 0.8 0  0.2 0.8 0  0.4 0.8 0  0.6 0.8 0  0.8 0.8 0  1 0.8 0  1.2 0.8 0  1.4 0.8 0  1.6 0.8 0  1.8 0.8 0  2 0.8 0  2.2 0.8 0  2.4 0.8 0  2.6 0.8 0  2.8 0.8 0  3 0.8 0  3.2 0.8 0  3.4 0.8 0  3.6 0.8 0  3.8 0.8 0  4 0.8 0  4.2 0.8 0  4.4 0.8 0  4.6 0.8 0  4.8 0.8 0  5 0.8 0  5.2 0.8 0  5.4 0.8 0  5.6 0.8 0  5.8 0.8 0  6 0.8 0  6.2 0.8 0  6.4 0.8 0  6.6 0.8 0  6.8 0.8 0  7 0.8 0  7.2 0.8 0  7.4 0.8 0  7.6 0.8 0  7.8 0.8 0  8 0.8 0  8.199999999999999 0.8 0  8.4 0.8 0  8.6 0.8 0  8.800000000000001 0.8 0  9 0.8 0  9.199999999999999 0.8 0  9.4 0.8 0  9.6 0.8 0  9.800000000000001 0.8 0  10 0.8 0  0 1 0  0.2 1 0  0.4 1 0  0.6 1 0  0.8 1 0  1 1 0  1.2 1 0  1.4 1 0  1.6 1 0  1.8 1 0  2 1 0  2.2 1 0  2.4 1 0  2.6 1 0  2.8 1 0  3 1 0  3.2 1 0  3.4 1 0  3.6 1 0  3.8 1 0  4 1 0  4.2 1 0  4.4 1 0  4.6 1 0  4.8 1 0  5 1 0  5.2 1 0  5.4 1 0  5.6 1 0  5.8 1 0  6 1 0  6.2 1 0  6.4 1 0  6.6 1 0  6.8 1 0  7 1 0  7.2 1 0  7.4 1 0  7.6 1 0  7.8 1 0  8 1 0  8.199999999999999 1 0  8.4 1 0  8.6 1 0  8.800000000000001 1 0  9 1 0  9.199999999999999 1 0  9.4 1 0  9.6 1 0  9.800000000000001 1 0  10 1 0  0 1.2 0  0.2 1.2 0  0.4 1.2 0  0.6 1.2 0  0.8 1.2 0  1 1.2 0  1.2 1.2 0  1.4 1.2 0  1.6 1.2 0  1.8 1.2 0  2 1.2 0  2.2 1.2 0  2.4 1.2 0  2.6 1.2 0  2.8 1.2 0  3 1.2 0  3.2 1.2 0  3.4 1.2 0  3.6 1.2 0  3.8 1.2 0  4 1.2 0  4.2 1.2 0  4.4 1.2 0  4.6 1.2 0  4.8 1.2 0  5 1.2 0  5.2 1.2 0  5.4 1.2 0  5.6 1.2 0  5.8 1.2 0  6 1.2 0  6.2 1.2 0  6.4 1.2 0  6.6 1.2 0  6.8 1.2 0  7 1.2 0  7.2 1.2 0  7.4 1.2 0  7.6 1.2 0  7.8 1.2 0  8 1.2 0  8.199999999999999 1.2 0  8.4 1.2 0  8.6 1.2 0  8.800000000000001 1.2 0  9 1.2 0  9.199999999999999 1.2 0  9.4 1.2 0  9.6 1.2 0  9.800000000000001 1.2 0  10 1.2 0  0 1.4 0  0.2 1.4 0  0.4 1.4 0  0.6 1.4 0  0.8 1.4 0  1 1.4 0  1.2 1.4 0  1.4 1.4 0  1.6 1.4 0  1.8 1.4 0  2 1.4 0  2.2 1.4 0  2.4 1.4 0  2.6 1.4 0  2.8 1.4 0  3 1.4 0  3.2 1.4 0  3.4 1.4 0  3.6 1.4 0  3.8 1.4 0  4 1.4 0  4.2 1.4 0  4.4 1.4 0  4.6 1.4 0  4.8 1.4 0  5 1.4 0  5.2 1.4 0  5.4 1.4 0  5.6 1.4 0  5.8 1.4 0  6 1.4 0  6.2 1.4 0  6.4 1.4 0  6.6 1.4 0  6.8 1.4 0  7 1.4 0  7.2 1.4 0  7.4 1.4 0  7.6 1.4 0  7.8 1.4 0  8 1.4 0  8.199999999999999 1.4 0  8.4 1.4 0  8.6 1.4 0  8.800000000000001 1.4 0  9 1.4 0  9.199999999999999 1.4 0  9.4 1.4 0  9.6 1.4 0  9.800000000000001 1.4 0  10 1.4 0  0 1.6 0  0.2 1.6 0  0.4 1.6 0  0.6 1.6 0  0.8 1.6 0  1 1.6 0  1.2 1.6 0  1.4 1.6 0  1.6 1.6 0  1.8 1.6 0  2 1.6 0  2.2 1.6 0  2.4 1.6 0  2.6 1.6 0  2.8 1.6 0  3 1.6 0  3.2 1.6 0  3.4 1.6 0  3.6 1.6 0  3.8 1.6 0  4 1.6 0  4.2 1.6 0  4.4 1.6 0  4.6 1.6 0  4.8 1.6 0  5 1.6 0  5.2 1.6 0  5.4 1.6 0  5.6 1.6 0  5.8 1.6 0  6 1.6 0  6.2 1.6 0  6.4 1.6 0  6.6 1.6 0  6.8 1.6 0  7 1.6 0  7.2 1.6 0  7.4 1.6 0  7.6 1.6 0  7.8 1.6 0  8 1.6 0  8.199999999999999 1.6 0  8.4 1.6 0  8.6 1.6 0  8.800000000000001 1.6 0  9 1.6 0  9.199999999999999 1.6 0  9.4 1.6 0  9.6 1.6 0  9.800000000000001 1.6 0  10 1.6 0  0 1.8 0  0.2 1.8 0  0.4 1.8 0  0.6 1.8 0  0.8 1.8 0  1 1.8 0  1.2 1.8 0  1.4 1.8 0  1.6 1.8 0  1.8 1.8 0  2 1.8 0  2.2 1.8 0  2.4 1.8 0  2.6 1.8 0  2.8 1.8 0  3 1.8 0  3.2 1.8 0  3.4 1.8 0  3.6 1.8 0  3.8 1.8 0  4 1.8 0  4.2 1.8 0  4.4 1.8 0  4.6 1.8 0  4.8 1.8 0  5 1.8 0  5.2 1.8 0  5.4 1.8 0  5.6 1.8 0  5.8 1.8 0  6 1.8 0  6.2 1.8 0  6.4 1.8 0  6.6 1.8 0  6.8 1.8 0  7 1.8 0  7.2 1.8 0  7.4 1.8 0  7.6 1.8 0  7.8 1.8 0  8 1.8 0  8.199999999999999 1.8 0  8.4 1.8 0  8.6 1.8 0  8.800000000000001 1.8 0  9 1.8 0  9.199999999999999 1.8 0  9.4 1.8 0  9.6 1.8 0  9.800000000000001 1.8 0  10 1.8 0  0 2 0  0.2 2 0  0.4 2 0  0.6 2 0  0.8 2 0  1 2 0  1.2 2 0  1.4 2 0  1.6 2 0  1.8 2 0  2 2 0  2.2 2 0  2.4 2 0  2.6 2 0  2.8 2 0  3 2 0  3.2 2 0  3.4 2 0  3.6 2 0  3.8 2 0  4 2 0  4.2 2 0  4.4 2 0  4.6 2 0  4.8 2 0  5 2 0  5.2 2 0  5.4 2 0  5.6 2 0  5.8 2 0  6 2 0  6.2 2 0  6.4 2 0  6.6 2 0  6.8 2 0  7 2 0  7.2 2 0  7.4 2 0  7.6 2 0  7.8 2 0  8 2 0  8.199999999999999 2 0  8.4 2 0  8.6 2 0  8.800000000000001 2 0  9 2 0  9.199999999999999 2 0  9.4 2 0  9.6 2 0  9.800000000000001 2 0  10 2 0  0 2.2 0  0.2 2.2 0  0.4 2.2 0  0.6 2.2 0  0.8 2.2 0  1 2.2 0  1.2 2.2 0  1.4 2.2 0  1.6 2.2 0  1.8 2.2 0  2 2.2 0  2.2 2.2 0  2.4 2.2 0  2.6 2.2 0  2.8 2.2 0  3 2.2 0  3.2 2.2 0  3.4 2.2 0  3.6 2.2 0  3.8 2.2 0  4 2.2 0  4.2 2.2 0  4.4 2.2 0  4.6 2.2 0  4.8 2.2 0  5 2.2 0  5.2 2.2 0  5.4 2.2 0  5.6 2.2 0  5.8 2.2 0  6 2.2 0  6.2 2.2 0  6.4 2.2 0  6.6 2.2 0  6.8 2.2 0  7 2.2 0  7.2 2.2 0  7.4 2.2 0  7.6 2.2 0  7.8 2.2 0  8 2.2 0  8.199999999999999 2.2 0  8.4 2.2 0  8.6 2.2 0  8.800000000000001 2.2 0  9 2.2 0  9.199999999999999 2.2 0  9.4 2.2 0  9.6 2.2 0  9.800000000000001 2.2 0  10 2.2 0  0 2.4 0  0.2 2.4 0  0.4 2.4 0  0.6 2.4 0  0.8 2.4 0  1 2.4 0  1.2 2.4 0  1.4 2.4 0  1.6 2.4 0  1.8 2.4 0  2 2.4 0  2.2 2.4 0  2.4 2.4 0  2.6 2.4 0  2.8 2.4 0  3 2.4 0  3.2 2.4 0  3.4 2.4 0  3.6 2.4 0  3.8 2.4 0  4 2.4 0  4.2 2.4 0  4.4 2.4 0  4.6 2.4 0  4.8 2.4 0  5 2.4 0  5.2 2.4 0  5.4 2.4 0  5.6 2.4 0  5.8 2.4 0  6 2.4 0  6.2 2.4 0  6.4 2.4 0  6.6 2.4 0  6.8 2.4 0  7 2.4 0  7.2 2.4 0  7.4 2.4 0  7.6 2.4 0  7.8 2.4 0  8 2.4 0  8.199999999999999 2.4 0  8.4 2.4 0  8.6 2.4 0  8.800000000000001 2.4 0  9 2.4 0  9.199999999999999 2.4 0  9.4 2.4 0  9.6 2.4 0  9.800000000000001 2.4 0  10 2.4 0  0 2.6 0  0.2 2.6 0  0.4 2.6 0  0.6 2.6 0  0.8 2.6 0  1 2.6 0  1.2 2.6 0  1.4 2.6 0  1.6 2.6 0  1.8 2.6 0  2 2.6 0  2.2 2.6 0  2.4 2.6 0  2.6 2.6 0  2.8 2.6 0  3 2.6 0  3.2 2.6 0  3.4 2.6 0  3.6 2.6 0  3.8 2.6 0  4 2.6 0  4.2 2.6 0  4.4 2.6 0  4.6 2.6 0  4.8 2.6 0  5 2.6 0  5.2 2.6 0  5.4 2.6 0  5.6 2.6 0  5.8 2.6 0  6 2.6 0  6.2 2.6 0  6.4 2.6 0  6.6 2.6 0  6.8 2.6 0  7 2.6 0  7.2 2.6 0  7.4 2.6 0  7.6 2.6 0  7.8 2.6 0  8 2.6 0  8.199999999999999 2.6 0  8.4 2.6 0  8.6 2.6 0  8.800000000000001 2.6 0  9 2.6 0  9.199999999999999 2.6 0  9.4 2.6 0  9.6 2.6 0  9.800000000000001 2.6 0  10 2.6 0  0 2.8 0  0.2 2.8 0  0.4 2.8 0  0.6 2.8 0  0.8 2.8 0  1 2.8 0  1.2 2.8 0  1.4 2.8 0  1.6 2.8 0  1.8 2.8 0  2 2.8 0  2.2 2.8 0  2.4 2.8 0  2.6 2.8 0  2.8 2.8 0  3 2.8 0  3.2 2.8 0  3.4 2.8 0  3.6 2.8 0  3.8 2.8 0  4 2.8 0  4.2 2.8 0  4.4 2.8 0  4.6 2.8 0  4.8 2.8 0  5 2.8 0  5.2 2.8 0  5.4 2.8 0  5.6 2.8 0  5.8 2.8 0  6 2.8 0  6.2 2.8 0  6.4 2.8 0  6.6 2.8 0  6.8 2.8 0  7 2.8 0  7.2 2.8 0  7.4 2.8 0  7.6 2.8 0  7.8 2.8 0  8 2.8 0  8.199999999999999 2.8 0  8.4 2.8 0  8.6 2.8 0  8.800000000000001 2.8 0  9 2.8 0  9.199999999999999 2.8 0  9.4 2.8 0  9.6 2.8 0  9.800000000000001 2.8 0  10 2.8 0  0 3 0  0.2 3 0  0.4 3 0  0.6 3 0  0.8 3 0  1 3 0  1.2 3 0  1.4 3 0  1.6 3 0  1.8 3 0  2 3 0  2.2 3 0  2.4 3 0  2.6 3 0  2.8 3 0  3 3 0  3.2 3 0  3.4 3 0  3.6 3 0  3.8 3 0  4 3 0  4.2 3 0  4.4 3 0  4.6 3 0  4.8 3 0  5 3 0  5.2 3 0  5.4 3 0  5.6 3 0  5.8 3 0  6 3 0  6.2 3 0  6.4 3 0  6.6 3 0  6.8 3 0  7 3 0  7.2 3 0  7.4 3 0  7.6 3 0  7.8 3 0  8 3 0  8.199999999999999 3 0  8.4 3 0  8.6 3 0  8.800000000000001 3 0  9 3 0  9.199999999999999 3 0  9.4 3 0  9.6 3 0  9.800000000000001 3 0  10 3 0  0 3.2 0  0.2 3.2 0  0.4 3.2 0  0.6 3.2 0  0.8 3.2 0  1 3.2 0  1.2 3.2 0  1.4 3.2 0  1.6 3.2 0  1.8 3.2 0  2 3.2 0  2.2 3.2 0  2.4 3.2 0  2.6 3.2 0  2.8 3.2 0  3 3.2 0  3.2 3.2 0  3.4 3.2 0  3.6 3.2 0  3.8 3.2 0  4 3.2 0  4.2 3.2 0  4.4 3.2 0  4.6 3.2 0  4.8 3.2 0  5 3.2 0  5.2 3.2 0  5.4 3.2 0  5.6 3.2 0  5.8 3.2 0  6 3.2 0  6.2 3.2 0  6.4 3.2 0  6.6 3.2 0  6.8 3.2 0  7 3.2 0  7.2 3.2 0  7.4 3.2 0  7.6 3.2 0  7.8 3.2 0  8 3.2 0  8.199999999999999 3.2 0  8.4 3.2 0  8.6 3.2 0  8.800000000000001 3.2 0  9 3.2 0  9.199999999999999 3.2 0  9.4 3.2 0  9.6 3.2 0  9.800000000000001 3.2 0  10 3.2 0  0 3.4 0  0.2 3.4 0  0.4 3.4 0  0.6 3.4 0  0.8 3.4 0  1 
[...]
<PointData  Scalars="f_14"> 
<DataArray  type="Float64"  Name="f_14"  format="ascii">9.5594542798249615e-01  9.5284696040569117e-01  9.4494264235002590e-01  9.3406940575965369e-01  9.2162163890680526e-01  9.0858810495210363e-01  8.9565043475313622e-01  8.8326682777998466e-01  8.7173349863397531e-01  8.6122805147741477e-01  8.5184040231301983e-01  8.4359537870544543e-01  8.3646986961281711e-01  8.3040635212529901e-01  8.2532388038013749e-01  8.2112713470498011e-01  8.1771384279677140e-01  8.1498074618187810e-01  8.1282824307539803e-01  8.1116384833099253e-01  8.0990463815510638e-01  8.0897886959710530e-01  8.0832697187088787e-01  8.0790209630534782e-01  8.0767038729592866e-01  8.0761110313580453e-01  8.0771667783699386e-01  8.0799277629741051e-01  8.0845835694407242e-01  8.0914571843357075e-01  8.1010046970969818e-01  8.1138132569608057e-01  8.1305959538383810e-01  8.1521819804300499e-01  8.1795002127094851e-01  8.2135542652264382e-01  8.2553871671953927e-01  8.3060340449599179e-01  8.3664614794511161e-01  8.4374923119937806e-01  8.5197142530102477e-01  8.6133692556997943e-01  8.7182177363503333e-01  8.8333668225754702e-01  8.9570443615760309e-01  9.0862899296981392e-01  9.2165214935148854e-01  9.3409214644249894e-01  9.4496002748030350e-01  9.5286120829127452e-01  9.5595862476125837e-01  9.5284828828729040e-01  9.5154307626308410e-01  9.4632977323887146e-01  9.3786933911521586e-01  9.2739394709544398e-01  9.1593428656459419e-01  9.0424815098187283e-01  8.9286373690802701e-01  8.8213276843455779e-01  8.7227485447441855e-01  8.6341132709645263e-01  8.5559070692723793e-01  8.4880811644287202e-01  8.4302043508979063e-01  8.3815839554804550e-01  8.3413635626375793e-01  8.3086018256619054e-01  8.2823350314292199e-01  8.2616253984958821e-01  8.2455969581575939e-01  8.2334609634878775e-01  8.2245328705630472e-01  8.2182429254825062e-01  8.2141422407369424e-01  8.2119059765322933e-01  8.2113348993699442e-01  8.2123562130447980e-01  8.2150241748477060e-01  8.2195206347321970e-01  8.2261552675463934e-01  8.2353649029525344e-01  8.2477109927740144e-01  8.2638739010577766e-01  8.2846423835739447e-01  8.3108963796013591e-01  8.3435811104427249e-01  8.3836704870654921e-01  8.4321179438666460e-01  8.4897929230885616e-01  8.5574011121009641e-01  8.6353858492870994e-01  8.7238064515061342e-01  8.8221861702404358e-01  8.9293178144166574e-01  9.0430090990999479e-01  9.1597444794906147e-01  9.2742419558446032e-01  9.3789223067251393e-01  9.4634766254454783e-01  9.5155809618494269e-01  9.5286237570406818e-01  9.4494806170943813e-01  9.4633383813137273e-01  9.4624523689995255e-01  9.4293804726400299e-01  9.3691407411670513e-01  9.2911231735378730e-01  9.2038601484577498e-01  9.1139194868697704e-01  9.0259717833692188e-01  8.9431345444084065e-01  8.8673289855904813e-01  8.7995814004515216e-01  8.7402624405921636e-01  8.6892739669408670e-01  8.6461949497537383e-01  8.6103957002339315e-01  8.5811271136751210e-01  8.5575896541771335e-01  8.5389856261251529e-01  8.5245576551609858e-01  8.5136159878752149e-01  8.5055570147903226e-01  8.4998752062408844e-01  8.4961703779334952e-01  8.4941518723870257e-01  8.4936408767598826e-01  8.4945717225610862e-01  8.4969926460028156e-01  8.5010661348668115e-01  8.5070686443163923e-01  8.5153891212990884e-01  8.5265254288835657e-01  8.5410774106199783e-01  8.5597349949237833e-01  8.5832594333090706e-01  8.6124555146723236e-01  8.6481324000147053e-01  8.6910505304072661e-01  8.7418517565792897e-01  8.8009692206209467e-01  8.8685123341733230e-01  8.9441202388025365e-01  9.0267745138572908e-01  9.1145596772175042e-01  9.2043618126385229e-01  9.2915119489988185e-01  9.3694422230285357e-01  9.4296189056366408e-01  9.4626496943765837e-01  9.4635135494477951e-01  9.4496490352077678e-01  9.3408228369929014e-01  9.3788077724619801e-01  9.4294528263769073e-01  9.4534484610347758e-01  9.4456192214405443e-01  9.4122865889459040e-01  9.3619896402413305e-01  9.3023138758776458e-01  9.2391031516072131e-01  9.1765117265529550e-01  9.1172984157989856e-01  9.0631468457515396e-01  9.0149441381019835e-01  8.9730050906171210e-01  8.9372468106922520e-01  8.9073228215066902e-01  8.8827251204952329e-01  8.8628610549274001e-01  8.8471103814567131e-01  8.8348667629289201e-01  8.8255671718774686e-01  8.8187120901970850e-01  8.8138789147808738e-01  8.8107305402138258e-01  8.8090206701455898e-01  8.8085970084782061e-01  8.8094031064606815e-01  8.8114792954199217e-01  8.8149628128992408e-01  8.8200869210719068e-01  8.8271785056163521e-01  8.8366533173529449e-01  8.8490076699934617e-01  8.8648050344616069e-01  8.8846555762171775e-01  8.9091862641681230e-01  8.9389987152651795e-01  8.9746113686033469e-01  9.0163818036282306e-01  9.0644039033335999e-01  9.1183730601446511e-01  9.1774109961081807e-01  9.2398412113728423e-01  9.3029101156627725e-01  9.3624667586967192e-01  9.4126687921276375e-01  9.4459306028175716e-01  9.4537115586858922e-01  9.4296872909957863e-01  9.3790290518132857e-01  9.3410407976075094e-01  9.2164664480934366e-01  9.2741731044930864e-01  9.3693278487158393e-01  9.4457297858910028e-01  9.4884429355615296e-01  9.4996839151733303e-01  9.4870702200028156e-01  9.4586612074411580e-01  9.4212144458007019e-01  9.3798177869451771e-01  9.3380381285660075e-01  9.2982168879633131e-01  9.2617678136976245e-01  9.2294302236297399e-01  9.2014696414666608e-01  9.1778313216061891e-01  9.1582554240482639e-01  9.1423622005112870e-01  9.1297141567988171e-01  9.1198607336543325e-01  9.1123698636904249e-01  9.1068498243348706e-01  9.1029640575647819e-01  9.1004410102786781e-01  9.0990805279932352e-01  9.0987578893120680e-01  9.0994261875190585e-01  9.1011174373676218e-01  9.1039424945005609e-01  9.1080896021437519e-01  9.1138211021762361e-01  9.1214675430251779e-01  9.1314180654797628e-01  9.1441055330430865e-01  9.1599843795502267e-01  9.1794985506156235e-01  9.2030361793361026e-01  9.2308667046734560e-01  9.2630549556921782e-01  9.2993452963825007e-01  9.3390075197296762e-01  9.3806357648908456e-01  9.4218949849121159e-01  9.4592229878563761e-01  9.4875349332048842e-01  9.5000746037325512e-01  9.4887823603854793e-01  9.4460387445679583e-01  9.3696233390054096e-01  9.2744662869420924e-01  9.2167604364531153e-01  9.0863206043798661e-01  9.1597619682292375e-01  9.2914858419884849e-01  9.4125608348395085e-01  9.4998388603430617e-01  9.5514222703023255e-01  9.5735325981268449e-01  9.5742595574311240e-01  9.5609746504880333e-01  9.5395215612629813e-01  9.5141750668320046e-01  9.4878771792021999e-01  9.4625329084941834e-01  9.4392811029068657e-01  9.4187154867552281e-01  9.4010551848113377e-01  9.3862721805479565e-01  9.3741846821761299e-01  9.3645245007013833e-01  9.3569850535302834e-01  9.3512551544117462e-01  9.3470425243183897e-01  9.3440899712683556e-01  9.3421864027106327e-01  9.3411742107011286e-01  9.3409540745013964e-01  9.3414878310773852e-01  9.3427997471332291e-01  9.3449762611822029e-01  9.3481640221670004e-01  9.3525658013363655e-01  9.3584335647692851e-01  9.3660576341034429e-01  9.3757504022878679e-01  9.3878224776080588e-01  9.4025483659219500e-01  9.4201178253548623e-01  9.4405678029543205e-01  9.4636884039396385e-01  9.4888948420390284e-01  9.5150564346902211e-01  9.5402752154067538e-01  9.5616148746661667e-01  9.5748048847472211e-01  9.5740043052013157e-01  9.5518428072360495e-01  9.5002301226454777e-01  9.4129421221896303e-01  9.2918713734558178e-01  9.1601580036861108e-01  9.0867222976694484e-01  8.9572330979772730e-01  9.0431827009799903e-01  9.2044866884501342e-01  9.3625039874981841e-01  9.4874426863577610e-01  9.5737355741576335e-01  9.6261088885506796e-01  9.6524326911095004e-01  9.6604615417335682e-01  9.6566255386175170e-01  9.6457929497731365e-01  9.6314298038878465e-01  9.6158787203849472e-01  9.6006373896501196e-01  9.5865942128574066e-01  9.5742128327598852e-01  9.5636705559196844e-01  9.5549594734455312e-01  9.5479590385978264e-01  9.5424875096077322e-01  9.5383380822272401e-01  9.5353041065738608e-01  9.5331966072988816e-01  9.5318563986417393e-01  9.5311623694217162e-01  9.5310369671239537e-01  9.5314494979698261e-01  9.5324175465882999e-01  9.5340065698774146e-01  9.5363274984149349e-01  9.5395319469101081e-01  9.5438043527995720e-01  9.5493499883864597e-01  9.5563772850697704e-01  9.5650722245803899e-01  9.5755616467688298e-01  9.5878611574395789e-01  9.6018018875020117e-01  9.6169287595211295e-01  9.6323615505497873e-01  9.6466099711056397e-01  9.6573377647943981e-01  9.6610840787512686e-01  9.6529845515549040e-01  9.6266116367313970e-01  9.5742117874922883e-01  9.4879140360907754e-01  9.3629886924978689e-01  9.2049961940907588e-01  9.0437177636590516e-01  8.9577795379277947e-01  8.8338285123887572e-01  8.9297584725421097e-01  9.1149357974173861e-01  9.3031773091358849e-01  9.4593405714099965e-01  9.5747342563875959e-01  9.6526836412151573e-01  9.7007392395490533e-01  9.7268921742707470e-01  9.7380270356659837e-01  9.7395033031497924e-01  9.7352352631111516e-01  9.7279463605889183e-01  9.7194485745653703e-01  9.7108879959181926e-01  9.7029406069198343e-01  9.6959602678656243e-01  9.6900870267487049e-01  9.6853247713919688e-01  9.6815961687926022e-01  9.6787812290070219e-01  9.6767442736816522e-01  9.6753527752862967e-01  9.6744904935590692e-01  9.6740665433956574e-01  9.6740214397159052e-01  9.6743307340678397e-01  9.6750065407922492e-01  9.6760970049111261e-01  9.6776835475914802e-01  9.6798754955939004e-01  9.6828014141795138e-01  9.6865960711380428e-01  9.6913814121122543e-01  9.6972391712625428e-01  9.7041717267381711e-01  9.7120465068760919e-01  9.7205176920007152e-01  9.7289173340499424e-01  9.7361069192000238e-01  9.7402812763687852e-01  9.7387228177718355e-01  9.7275220761953540e-01  9.7013232930012572e-01  9.6532443676514601e-01  9.5752951047107304e-01  9.4599237028768435e-01  9.3038003712935069e-01  9.1156075210491139e-01  8.9304734486540582e-01  8.8345616160565965e-01  8.7191232326675128e-01  8.8230590382669072e-01  9.0275518474584071e-01  9.2404667611373004e-01  9.4223256138969369e-01  9.5618187976957325e-01  9.6610341734320726e-01  9.7271872870378540e-01  9.7684219925415960e-01  9.7919825191923582e-01  9.8036361471399414e-01  9.8076782256725026e-01  9.8071599060789949e-01  9.8041646771642188e-01  9.8000606438850657e-01  9.7957053483644008e-01  9.7916020532770009e-01  9.7880146419697123e-01  9.7850501467082418e-01  9.7827171766064369e-01  9.7809669525407283e-01  9.7797220290835407e-01  9.7788963763168613e-01  9.7784093787731452e-01  9.7781954692994311e-01  9.7782105044584866e-01  9.7784355475959539e-01  9.7788783992288741e-01  9.7795729517711105e-01  9.7805762046617972e-01  9.7819625193835058e-01  9.7838143824402546e-01  9.7862085304994217e-01  9.7891957173271560e-01  9.7927716024738820e-01  9.7968351594097003e-01  9.8011296124341574e-01  9.8051592851966751e-01  9.8080741639672775e-01  9.8085132124389596e-01  9.8043992998329144e-01  9.7926868043856874e-01  9.7690850393670270e-01  9.7278304686107631e-01  9.6616814890118041e-01  9.5624952395399332e-01  9.4230545454478642e-01  9.2412658080017540e-01  9.0284271128154281e-01  8.8239982312357346e-01  8.7200884757566488e-01  8.6149589198862264e-01  8.7253440296705242e-01  8.9455106114466831e-01  9.1785778846018640e-01  9.3815294745207434e-01  9.5408695204258287e-01  9.6576207424172644e-01  9.7386859131750725e-01  9.7923148542450356e-01  9.8260433512088463e-01  9.8459796762855711e-01  9.8567426278310732e-01  9.8616635570119138e-01  9.8630584188049031e-01  9.8624846955106094e-01  9.8609536164751455e-01  9.8590936870191470e-01  9.8572716337268285e-01  9.8556796054528983e-01  9.8543970639111089e-01  9.8534343027717441e-01  9.8527628707681381e-01  9.8523367128983896e-01  9.8521066980321592e-01  9.8520303661616992e-01  9.8520781430475324e-01  9.8522368493631085e-01  9.8525109921499321e-01  9.8529220068378875e-01  9.8535052876621509e-01  9.8543044946094882e-01  9.8553622467242996e-01  9.8567058709507793e-01  9.8583263055195236e-01  9.8601474683822032e-01  9.8619823134550122e-01  9.8634703826704750e-01  9.8639900190140539e-01  9.8625369029181376e-01  9.8575601393873469e-01  9.8467498141306797e-01  9.8267799853107329e-01  9.7930366186056983e-01  9.7394154963026902e-01  9.6583838856071758e-01  9.5416932729431281e-01  9.3824390498272814e-01  9.1795914448611926e-01  8.9466317611143398e-01  8.7265528966431116e-01  8.6162029988690658e-01  8.5223105273715682e-01  8.6379001566060687e-01  8.8708006395323380e-01  9.1203289169274737e-01  9.3405701536394947e-01  9.5162044973274418e-01  9.6473480433419334e-01  9.7406251857886494e-01  9.8043637529487027e-01  9.8463395241042229e-01  9.8729468669942178e-01  9.8890783125211379e-01  9.8983031408381528e-01  9.9031344956818301e-01  9.9052896967063786e-01  9.9059086740961966e-01  9.9057239358877791e-01  9.9051871543976600e-01  9.9045609449715577e-01  9.9039842914218490e-01  9.9035186306036227e-01  9.9031799130422493e-01  9.9029604717827535e-01  9.9028434232963902e-01  9.9028115959855145e-01  9.9028525353545205e-01  9.9029608152421511e-01  9.9031385380549819e-01  9.9033944441298460e-01  9.9037414788859768e-01  9.9041920678306450e-01  9.9047498079977170e-01  9.9053958130994990e-01  9.9060674617248656e-01  9.9066266388810642e-01  9.9068135814735248e-01  9.9061810770926040e-01  9.9040021443235482e-01  9.8991428944719428e-01  9.8898921214720414e-01  9.8737425931735667e-01  9.8471306240573286e-01  9.8051689248663521e-01  9.7414679054087983e-01  9.6482556823055399e-01  9.5172064246397803e-01  9.3416939518839193e-01  9.1215938293312848e-01  8.8722079829001232e-01  8.6394219197933875e-01  8.5238778463228759e-01  8.4415101600468512e-01  8.5612937889845953e-01  8.8045227269461024e-01  9.0674693642978654e-01  9.3018459862093550e-01  9.4908143534898104e-01  9.6337234937626148e-01  9.7369546641257798e-01  9.8088941309457134e-01  9.8575154684070321e-01  9.8894519886442112e-01  9.9098259137845046e-01  9.9224061848614253e-01  9.9298707543513032e-01  9.9340695065145834e-01  9.9362480686194132e-01  9.9372236777224321e-01  9.9375172629907871e-01  9.9374499995016696e-01  9.9372126614309442e-01  9.9369146381828655e-01  9.9366177004901868e-01  9.9363581055921457e-01  9.9361596660244411e-01  9.9360399961977386e-01  9.9360121097804210e-01  9.9360835352768162e-01  9.9362548030734699e-01  9.9365183609506735e-01  9.9368578032026400e-01  9.9372460794369222e-01  9.9376404251954520e-01  9.9379712654525454e-01  9.9381221361212257e-01  9.9378974116631635e-01  9.9369739852849370e-01  9.9348318666615543e-01  9.9306570828238905e-01  9.9232088569757970e-01  9.9106430578297355e-01  9.8902879005741795e-01  9.8583807570680315e-01  9.8098057223458202e-01  9.7379355970060499e-01  9.6348021377581983e-01  9.4920222983622571e-01  9.3032134967778612e-01  9.0690172685146120e-01  8.8062504013620690e-01  8.5631648331629662e-01  8.4434380536232967e-01  8.3724156323748777e-01  8.4955622493025718e-01  8.7471266135317249e-01  9.0209564410820353e-01  9.2668315422323844e-01  9.4666563905665335e-01  9.6191345977816234e-01  9.7304363315982734e-01  9.8089900861998824e-01  9.8629302521436713e-01  9.8990868040615843e-01  9.9227713744143387e-01  9.9379168890658920e-01  9.9473353462557479e-01  9.9529828114673824e-01  9.9561880264506952e-01  9.9578339483333300e-01  9.9584956122761736e-01  9.9585422487240927e-01  9.9582116859986192e-01  9.9576634006751918e-01  9.9570145539947419e-01  9.9563617794255899e-01  9.9557908211596269e-01  9.9553764623775698e-01  9.9551761672377737e-01  9.9552217207019245e-01  9.9555130259165270e-01  9.9560166732728694e-01  9.9566692677868773e-01  9.9573827732341302e-01  9.9580473308951234e-01  9.9585265823388658e-01  9.9586411211616599e-01  9.9581364815468199e-01  9.9566322442190847e-01  9.9535480368951945e-01  9.9480006276544730e-01  9.9386647409414175e-01  9.9235901936337978e-01  9.8999722605198592e-01  9.8638860315100363e-01  9.8100282539379835e-01  9.7315773254078253e-01  9.6204064574443204e-01  9.4680923336922151e-01  9.2684645288769385e-01  9.0228093098275042e-01  8.7491973431605041e-01  8.4978063040801755e-01  8.3747283272308215e-01  8.3145422128013269e-01  8.4403619633615223e-01  8.6985947510246864e-01  8.9811765777812069e-01  9.2363286079201024e-01  9.4449235281738486e-01  9.6051257917918920e-01  9.7229224839960571e-01  9.8067694278669149e-01  9.8649279780492760e-01  9.9043856023444743e-01  9.9306053551510043e-01  9.9476496674936776e-01  9.9584338823239538e-01  9.9649928620461659e-01  9.9687139932857471e-01  9.9705245311004365e-01  9.9710361873250508e-01  9.9706546610091340e-01  9.9696616707808827e-01  9.9682747924881154e-01  9.9666876937488602e-01  9.9650914165055904e-01  9.9636771529443513e-01  9.9626228951321960e-01  9.9620697797191393e-01  9.9620970946579446e-01  9.9627055213383953e-01  9.9638149945318577e-01  9.9652774302299585e-01  9.9668981946446566e-01  9.9684564066571268e-01  9.9697141529684830e-01  9.9704074444872992e-01  9.9702150536937295e-01  9.9687033228463584e-01  9.9652448662029736e-01  9.9589072601641293e-01  9.9483056328229369e-01  9.9314125417530530e-01  9.9053228134595417e-01  9.8659855422080922e-01  9.8079497513002190e-01  9.7242400049395317e-01  9.6066059958248662e-01  9.4466000247513215e-01  9.2382366566248086e-01  8.9833413274750817e-01  8.7010135768538110e-01  8.4429831674417266e-01  8.3172436323782695e-01  8.2671686659706345e-01  8.3950857065027629e-01  8.6585848219479244e-01  8.9481171091215983e-01  9.2106643209657046e-01  9.4262632314112960e-01  9.5926322765234484e-01  9.7155996937727906e-01  9.8036344024130928e-01  9.8650930346292887e-01  9.9070834425715681e-01  9.9351832441958443e-01  9.9535496692296999e-01  9.9651688776220959e-01  9.9721235834370814e-01  9.9758300775412889e-01  9.9772318547707606e-01  9.9769527877467301e-01  9.9754176681275630e-01  9.9729471609058207e-01  9.9698306216018839e-01  9.9663757802187536e-01  9.9629310398431459e-01  9.9598762979099698e-01  9.9575832662737640e-01  9.9563553949875594e-01  9.9563665758495568e-01  9.9576208791871001e-01  9.9599488502035072e-01  9.9630412847095839e-01  9.9665061634909824e-01  9.9699262195639082e-01  9.9728962872965221e-01  9.9750280040804595e-01  9.9759187035153873e-01  9.9750869088110594e-01  9.9718774307391345e-01  9.9653361119627515e-01  9.9540503638707523e-01  9.9359497724376999e-01  9.9080647908924890e-01  9.8662564379978068e-01  9.8049655375245481e-01  9.7171020324897128e-01  9.5943254158682423e-01  9.4281791392389580e-01  9.2128396366952803e-01  8.9505794072823086e-01  8.6613319686806556e-01  8.3980607529261342e-01  8.2702342892218128e-01  8.2294238151985299e-01  8.3589565256135201e-01  8.6265404877537921e-01  8.9214973112456042e-01  9.1898420501321465e-01  9.4109457660921914e-01  9.5821625763061402e-01  9.7091828182283624e-01  9.8004748205706527e-01  9.8644605197621116e-01  9.9083323913927723e-01  9.9377458435947619e-01  9.9569164098545315e-01  9.9688643597659010e-01  9.9756822688908275e-01  9.9787753572354054e-01  9.9790619931425484e-01  9.9771383598699959e-01  9.9734162171014984e-01  9.9682407860685640e-01  9.9619895220419497e-01  9.9551440636546196e-01  9.9483204305729045e-01  9.9422417769670679e-01  9.9376485943420878e-01  9.9351631812246666e-01  9.9351494908949622e-01  9.9376204339562901e-01  9.9422305890059315e-01  9.9483569444966913e-01  9.9552332622784967e-01  9.9620856784192879e-01  9.9682247726755857e-01  9.9730725710258894e-01  9.9761259071659580e-01  9.9768699256646709e-01  9.9746560383901639e-01  9.9685519602658623e-01  9.9571633668314641e-01  9.9384219397027140e-01  9.9093370881237353e-01  9.8657237475567849e-01  9.8019555464046726e-01  9.7108666688076806e-01  9.5840586156238328e-01  9.4130813493050325e-01  9.1922536432699742e-01  8.9242147828009677e-01  8.6295636263674103e-01  8.3622261874801385e-01  8.2327919034687591e-01  8.2003569270603949e-01  8.3311028351402061e-01  8.6017771979950275e-01  8.9008673883508749e-01  9.1736538680547408e-01  9.3989892844089773e-01  9.5739348529781498e-01  9.7040610622046786e-01  9.7978224987049845e-01  9.8636778498551536e-01  9.9088692001434486e-01  9.9390920074802358e-01  9.9585800543900038e-01  9.9703439219343437e