<?xml version="1.0"?>
<VTKFile type="UnstructuredGrid"  version="0.1"  >
<UnstructuredGrid>
<Piece  NumberOfPoints="5101" NumberOfCells="10000">
<Points>
<DataArray  type="Float64"  NumberOfComponents="3"  format="ascii">0 0 0  0.2 0 0  0.4 0 0  0.6 0 0  0.8 0 0  1 0 0  1.2 0 0  1.4 0 0  1.6 0 0  1.8 0 0  2 0 0  2.2 0 0  2.4 0 0  2.6 0 0  2.8 0 0  3 0 0  3.2 0 0  3.4 0 0  3.6 0 0  3.8 0 0  4 0 0  4.2 0 0  4.4 0 0  4.6 0 0  4.8 0 0  5 0 0  5.2 0 0  5.4 0 0  5.6 0 0  5.8 0 0  6 0 0  6.2 0 0  6.4 0 0  6.6 0 0  6.8 0 0  7 0 0  7.2 0 0  7.4 0 0  7.6 0 0  7.8 0 0  8 0 0  8.199999999999999 0 0  8.4 0 0  8.6 0 0  8.800000000000001 0 0  9 0 0  9.199999999999999 0 0  9.4 0 0  9.6 0 0  9.800000000000001 0 0  10 0 0  0 0.2 0  0.2 0.2 0  0.4 0.2 0  0.6 0.2 0  0.8 0.2 0  1 0.2 0  1.2 0.2 0  1.4 0.2 0  1.6 0.2 0  1.8 0.2 0  2 0.2 0  2.2 0.2 0  2.4 0.2 0  2.6 0.2 0  2.8 0.2 0  3 0.2 0  3.2 0.2 0  3.4 0.2 0  3.6 0.2 0  3.8 0.2 0  4 0.2 0  4.2 0.2 0  4.4 0.2 0  4.6 0.2 0  4.8 0.2 0  5 0.2 0  5.2 0.2 0  5.4 0.2 0  5.6 0.2 0  5.8 0.2 0  6 0.2 0  6.2 0.2 0  6.4 0.2 0  6.6 0.2 0  6.8 0.2 0  7 0.2 0  7.2 0.2 0  7.4 0.2 0  7.6 0.2 0  7.8 0.2 0  8 0.2 0  8.199999999999999 0.2 0  8.4 0.2 0  8.6 0.2 0  8.800000000000001 0.2 0  9 0.2 0  9.199999999999999 0.2 0  9.4 0.2 0  9.6 0.2 0  9.800000000000001 0.2 0  10 0.2 0  0 0.4 0  0.2 0.4 0  0.4 0.4 0  0.6 0.4 0  0.8 0.4 0  1 0.4 0  1.2 0.4 0  1.4 0.4 0  1.6 0.4 0  1.8 0.4 0  2 0.4 0  2.2 0.4 0  2.4 0.4 0  2.6 0.4 0  2.8 0.4 0  3 0.4 0  3.2 0.4 0  3.4 0.4 0  3.6 0.4 0  3.8 0.4 0  4 0.4 0  4.2 0.4 0  4.4 0.4 0  4.6 0.4 0  4.8 0.4 0  5 0.4 0  5.2 0.4 0  5.4 0.4 0  5.6 0.4 0  5.8 0.4 0  6 0.4 0  6.2 0.4 0  6.4 0.4 0  6.6 0.4 0  6.8 0.4 0  7 0.4 0  7.2 0.4 0  7.4 0.4 0  7.6 0.4 0  7.8 0.4 0  8 0.4 0  8.199999999999999 0.4 0  8.4 0.4 0  8.6 0.4 0  8.800000000000001 0.4 0  9 0.4 0  9.199999999999999 0.4 0  9.4 0.4 0  9.6 0.4 0  9.800000000000001 0.4 0  10 0.4 0  0 0.6 0  0.2 0.6 0  0.4 0.6 0  0.6 0.6 0  0.8 0.6 0  1 0.6 0  1.2 0.6 0  1.4 0.6 0  1.6 0.6 0  1.8 0.6 0  2 0.6 0  2.2 0.6 0  2.4 0.6 0  2.6 0.6 0  2.8 0.6 0  3 0.6 0  3.2 0.6 0  3.4 0.6 0  3.6 0.6 0  3.8 0.6 0  4 0.6 0  4.2 0.6 0  4.4 0.6 0  4.6 0.6 0  4.8 0.6 0  5 0.6 0  5.2 0.6 0  5.4 0.6 0  5.6 0.6 0  5.8 0.6 0  6 0.6 0  6.2 0.6 0  6.4 0.6 0  6.6 0.6 0  6.8 0.6 0  7 0.6 0  7.2 0.6 0  7.4 0.6 0  7.6 0.6 0  7.8 0.6 0  8 0.6 0  8.199999999999999 0.6 0  8.4 0.6 0  8.6 0.6 0  8.800000000000001 0.6 0  9 0.6 0  9.199999999999999 0.6 0  9.4 0.6 0  9.6 0.6 0  9.800000000000001 0.6 0  10 0.6 0  0 0.8 0  0.2 0.8 0  0.4 0.8 0  0.6 0.8 0  0.8 0.8 0  1 0.8 0  1.2 0.8 0  1.4 0.8 0  1.6 0.8 0  1.8 0.8 0  2 0.8 0  2.2 0.8 0  2.4 0.8 0  2.6 0.8 0  2.8 0.8 0  3 0.8 0  3.2 0.8 0  3.4 0.8 0  3.6 0.8 0  3.8 0.8 0  4 0.8 0  4.2 0.8 0  4.4 0.8 0  4.6 0.8 0  4.8 0.8 0  5 0.8 0  5.2 0.8 0  5.4 0.8 0  5.6 0.8 0  5.8 0.8 0  6 0.8 0  6.2 0.8 0  6.4 0.8 0  6.6 0.8 0  6.8 0.8 0  7 0.8 0  7.2 0.8 0  7.4 0.8 0  7.6 0.8 0  7.8 0.8 0  8 0.8 0  8.199999999999999 0.8 0  8.4 0.8 0  8.6 0.8 0  8.800000000000001 0.8 0  9 0.8 0  9.199999999999999 0.8 0  9.4 0.8 0  9.6 0.8 0  9.800000000000001 0.8 0  10 0.8 0  0 1 0  0.2 1 0  0.4 1 0  0.6 1 0  0.8 1 0  1 1 0  1.2 1 0  1.4 1 0  1.6 1 0  1.8 1 0  2 1 0  2.2 1 0  2.4 1 0  2.6 1 0  2.8 1 0  3 1 0  3.2 1 0  3.4 1 0  3.6 1 0  3.8 1 0  4 1 0  4.2 1 0  4.4 1 0  4.6 1 0  4.8 1 0  5 1 0  5.2 1 0  5.4 1 0  5.6 1 0  5.8 1 0  6 1 0  6.2 1 0  6.4 1 0  6.6 1 0  6.8 1 0  7 1 0  7.2 1 0  7.4 1 0  7.6 1 0  7.8 1 0  8 1 0  8.199999999999999 1 0  8.4 1 0  8.6 1 0  8.800000000000001 1 0  9 1 0  9.199999999999999 1 0  9.4 1 0  9.6 1 0  9.800000000000001 1 0  10 1 0  0 1.2 0  0.2 1.2 0  0.4 1.2 0  0.6 1.2 0  0.8 1.2 0  1 1.2 0  1.2 1.2 0  1.4 1.2 0  1.6 1.2 0  1.8 1.2 0  2 1.2 0  2.2 1.2 0  2.4 1.2 0  2.6 1.2 0  2.8 1.2 0  3 1.2 0  3.2 1.2 0  3.4 1.2 0  3.6 1.2 0  3.8 1.2 0  4 1.2 0  4.2 1.2 0  4.4 1.2 0  4.6 1.2 0  4.8 1.2 0  5 1.2 0  5.2 1.2 0  5.4 1.2 0  5.6 1.2 0  5.8 1.2 0  6 1.2 0  6.2 1.2 0  6.4 1.2 0  6.6 1.2 0  6.8 1.2 0  7 1.2 0  7.2 1.2 0  7.4 1.2 0  7.6 1.2 0  7.8 1.2 0  8 1.2 0  8.199999999999999 1.2 0  8.4 1.2 0  8.6 1.2 0  8.800000000000001 1.2 0  9 1.2 0  9.199999999999999 1.2 0  9.4 1.2 0  9.6 1.2 0  9.800000000000001 1.2 0  10 1.2 0  0 1.4 0  0.2 1.4 0  0.4 1.4 0  0.6 1.4 0  0.8 1.4 0  1 1.4 0  1.2 1.4 0  1.4 1.4 0  1.6 1.4 0  1.8 1.4 0  2 1.4 0  2.2 1.4 0  2.4 1.4 0  2.6 1.4 0  2.8 1.4 0  3 1.4 0  3.2 1.4 0  3.4 1.4 0  3.6 1.4 0  3.8 1.4 0  4 1.4 0  4.2 1.4 0  4.4 1.4 0  4.6 1.4 0  4.8 1.4 0  5 1.4 0  5.2 1.4 0  5.4 1.4 0  5.6 1.4 0  5.8 1.4 0  6 1.4 0  6.2 1.4 0  6.4 1.4 0  6.6 1.4 0  6.8 1.4 0  7 1.4 0  7.2 1.4 0  7.4 1.4 0  7.6 1.4 0  7.8 1.4 0  8 1.4 0  8.199999999999999 1.4 0  8.4 1.4 0  8.6 1.4 0  8.800000000000001 1.4 0  9 1.4 0  9.199999999999999 1.4 0  9.4 1.4 0  9.6 1.4 0  9.800000000000001 1.4 0  10 1.4 0  0 1.6 0  0.2 1.6 0  0.4 1.6 0  0.6 1.6 0  0.8 1.6 0  1 1.6 0  1.2 1.6 0  1.4 1.6 0  1.6 1.6 0  1.8 1.6 0  2 1.6 0  2.2 1.6 0  2.4 1.6 0  2.6 1.6 0  2.8 1.6 0  3 1.6 0  3.2 1.6 0  3.4 1.6 0  3.6 1.6 0  3.8 1.6 0  4 1.6 0  4.2 1.6 0  4.4 1.6 0  4.6 1.6 0  4.8 1.6 0  5 1.6 0  5.2 1.6 0  5.4 1.6 0  5.6 1.6 0  5.8 1.6 0  6 1.6 0  6.2 1.6 0  6.4 1.6 0  6.6 1.6 0  6.8 1.6 0  7 1.6 0  7.2 1.6 0  7.4 1.6 0  7.6 1.6 0  7.8 1.6 0  8 1.6 0  8.199999999999999 1.6 0  8.4 1.6 0  8.6 1.6 0  8.800000000000001 1.6 0  9 1.6 0  9.199999999999999 1.6 0  9.4 1.6 0  9.6 1.6 0  9.800000000000001 1.6 0  10 1.6 0  0 1.8 0  0.2 1.8 0  0.4 1.8 0  0.6 1.8 0  0.8 1.8 0  1 1.8 0  1.2 1.8 0  1.4 1.8 0  1.6 1.8 0  1.8 1.8 0  2 1.8 0  2.2 1.8 0  2.4 1.8 0  2.6 1.8 0  2.8 1.8 0  3 1.8 0  3.2 1.8 0  3.4 1.8 0  3.6 1.8 0  3.8 1.8 0  4 1.8 0  4.2 1.8 0  4.4 1.8 0  4.6 1.8 0  4.8 1.8 0  5 1.8 0  5.2 1.8 0  5.4 1.8 0  5.6 1.8 0  5.8 1.8 0  6 1.8 0  6.2 1.8 0  6.4 1.8 0  6.6 1.8 0  6.8 1.8 0  7 1.8 0  7.2 1.8 0  7.4 1.8 0  7.6 1.8 0  7.8 1.8 0  8 1.8 0  8.199999999999999 1.8 0  8.4 1.8 0  8.6 1.8 0  8.800000000000001 1.8 0  9 1.8 0  9.199999999999999 1.8 0  9.4 1.8 0  9.6 1.8 0  9.800000000000001 1.8 0  10 1.8 0  0 2 0  0.2 2 0  0.4 2 0  0.6 2 0  0.8 2 0  1 2 0  1.2 2 0  1.4 2 0  1.6 2 0  1.8 2 0  2 2 0  2.2 2 0  2.4 2 0  2.6 2 0  2.8 2 0  3 2 0  3.2 2 0  3.4 2 0  3.6 2 0  3.8 2 0  4 2 0  4.2 2 0  4.4 2 0  4.6 2 0  4.8 2 0  5 2 0  5.2 2 0  5.4 2 0  5.6 2 0  5.8 2 0  6 2 0  6.2 2 0  6.4 2 0  6.6 2 0  6.8 2 0  7 2 0  7.2 2 0  7.4 2 0  7.6 2 0  7.8 2 0  8 2 0  8.199999999999999 2 0  8.4 2 0  8.6 2 0  8.800000000000001 2 0  9 2 0  9.199999999999999 2 0  9.4 2 0  9.6 2 0  9.800000000000001 2 0  10 2 0  0 2.2 0  0.2 2.2 0  0.4 2.2 0  0.6 2.2 0  0.8 2.2 0  1 2.2 0  1.2 2.2 0  1.4 2.2 0  1.6 2.2 0  1.8 2.2 0  2 2.2 0  2.2 2.2 0  2.4 2.2 0  2.6 2.2 0  2.8 2.2 0  3 2.2 0  3.2 2.2 0  3.4 2.2 0  3.6 2.2 0  3.8 2.2 0  4 2.2 0  4.2 2.2 0  4.4 2.2 0  4.6 2.2 0  4.8 2.2 0  5 2.2 0  5.2 2.2 0  5.4 2.2 0  5.6 2.2 0  5.8 2.2 0  6 2.2 0  6.2 2.2 0  6.4 2.2 0  6.6 2.2 0  6.8 2.2 0  7 2.2 0  7.2 2.2 0  7.4 2.2 0  7.6 2.2 0  7.8 2.2 0  8 2.2 0  8.199999999999999 2.2 0  8.4 2.2 0  8.6 2.2 0  8.800000000000001 2.2 0  9 2.2 0  9.199999999999999 2.2 0  9.4 2.2 0  9.6 2.2 0  9.800000000000001 2.2 0  10 2.2 0  0 2.4 0  0.2 2.4 0  0.4 2.4 0  0.6 2.4 0  0.8 2.4 0  1 2.4 0  1.2 2.4 0  1.4 2.4 0  1.6 2.4 0  1.8 2.4 0  2 2.4 0  2.2 2.4 0  2.4 2.4 0  2.6 2.4 0  2.8 2.4 0  3 2.4 0  3.2 2.4 0  3.4 2.4 0  3.6 2.4 0  3.8 2.4 0  4 2.4 0  4.2 2.4 0  4.4 2.4 0  4.6 2.4 0  4.8 2.4 0  5 2.4 0  5.2 2.4 0  5.4 2.4 0  5.6 2.4 0  5.8 2.4 0  6 2.4 0  6.2 2.4 0  6.4 2.4 0  6.6 2.4 0  6.8 2.4 0  7 2.4 0  7.2 2.4 0  7.4 2.4 0  7.6 2.4 0  7.8 2.4 0  8 2.4 0  8.199999999999999 2.4 0  8.4 2.4 0  8.6 2.4 0  8.800000000000001 2.4 0  9 2.4 0  9.199999999999999 2.4 0  9.4 2.4 0  9.6 2.4 0  9.800000000000001 2.4 0  10 2.4 0  0 2.6 0  0.2 2.6 0  0.4 2.6 0  0.6 2.6 0  0.8 2.6 0  1 2.6 0  1.2 2.6 0  1.4 2.6 0  1.6 2.6 0  1.8 2.6 0  2 2.6 0  2.2 2.6 0  2.4 2.6 0  2.6 2.6 0  2.8 2.6 0  3 2.6 0  3.2 2.6 0  3.4 2.6 0  3.6 2.6 0  3.8 2.6 0  4 2.6 0  4.2 2.6 0  4.4 2.6 0  4.6 2.6 0  4.8 2.6 0  5 2.6 0  5.2 2.6 0  5.4 2.6 0  5.6 2.6 0  5.8 2.6 0  6 2.6 0  6.2 2.6 0  6.4 2.6 0  6.6 2.6 0  6.8 2.6 0  7 2.6 0  7.2 2.6 0  7.4 2.6 0  7.6 2.6 0  7.8 2.6 0  8 2.6 0  8.199999999999999 2.6 0  8.4 2.6 0  8.6 2.6 0  8.800000000000001 2.6 0  9 2.6 0  9.199999999999999 2.6 0  9.4 2.6 0  9.6 2.6 0  9.800000000000001 2.6 0  10 2.6 0  0 2.8 0  0.2 2.8 0  0.4 2.8 0  0.6 2.8 0  0.8 2.8 0  1 2.8 0  1.2 2.8 0  1.4 2.8 0  1.6 2.8 0  1.8 2.8 0  2 2.8 0  2.2 2.8 0  2.4 2.8 0  2.6 2.8 0  2.8 2.8 0  3 2.8 0  3.2 2.8 0  3.4 2.8 0  3.6 2.8 0  3.8 2.8 0  4 2.8 0  4.2 2.8 0  4.4 2.8 0  4.6 2.8 0  4.8 2.8 0  5 2.8 0  5.2 2.8 0  5.4 2.8 0  5.6 2.8 0  5.8 2.8 0  6 2.8 0  6.2 2.8 0  6.4 2.8 0  6.6 2.8 0  6.8 2.8 0  7 2.8 0  7.2 2.8 0  7.4 2.8 0  7.6 2.8 0  7.8 2.8 0  8 2.8 0  8.199999999999999 2.8 0  8.4 2.8 0  8.6 2.8 0  8.800000000000001 2.8 0  9 2.8 0  9.199999999999999 2.8 0  9.4 2.8 0  9.6 2.8 0  9.800000000000001 2.8 0  10 2.8 0  0 3 0  0.2 3 0  0.4 3 0  0.6 3 0  0.8 3 0  1 3 0  1.2 3 0  1.4 3 0  1.6 3 0  1.8 3 0  2 3 0  2.2 3 0  2.4 3 0  2.6 3 0  2.8 3 0  3 3 0  3.2 3 0  3.4 3 0  3.6 3 0  3.8 3 0  4 3 0  4.2 3 0  4.4 3 0  4.6 3 0  4.8 3 0  5 3 0  5.2 3 0  5.4 3 0  5.6 3 0  5.8 3 0  6 3 0  6.2 3 0  6.4 3 0  6.6 3 0  6.8 3 0  7 3 0  7.2 3 0  7.4 3 0  7.6 3 0  7.8 3 0  8 3 0  8.199999999999999 3 0  8.4 3 0  8.6 3 0  8.800000000000001 3 0  9 3 0  9.199999999999999 3 0  9.4 3 0  9.6 3 0  9.800000000000001 3 0  10 3 0  0 3.2 0  0.2 3.2 0  0.4 3.2 0  0.6 3.2 0  0.8 3.2 0  1 3.2 0  1.2 3.2 0  1.4 3.2 0  1.6 3.2 0  1.8 3.2 0  2 3.2 0  2.2 3.2 0  2.4 3.2 0  2.6 3.2 0  2.8 3.2 0  3 3.2 0  3.2 3.2 0  3.4 3.2 0  3.6 3.2 0  3.8 3.2 0  4 3.2 0  4.2 3.2 0  4.4 3.2 0  4.6 3.2 0  4.8 3.2 0  5 3.2 0  5.2 3.2 0  5.4 3.2 0  5.6 3.2 0  5.8 3.2 0  6 3.2 0  6.2 3.2 0  6.4 3.2 0  6.6 3.2 0  6.8 3.2 0  7 3.2 0  7.2 3.2 0  7.4 3.2 0  7.6 3.2 0  7.8 3.2 0  8 3.2 0  8.199999999999999 3.2 0  8.4 3.2 0  8.6 3.2 0  8.800000000000001 3.2 0  9 3.2 0  9.199999999999999 3.2 0  9.4 3.2 0  9.6 3.2 0  9.800000000000001 3.2 0  10 3.2 0  0 3.4 0  0.2 3.4 0  0.4 3.4 0  0.6 3.4 0  0.8 3.4 0  1 
[...]
<PointData  Scalars="f_14"> 
<DataArray  type="Float64"  Name="f_14"  format="ascii">9.9999147093496066e-01  9.9999083538380029e-01  9.9998926565327417e-01  9.9998721486971043e-01  9.9998501409768437e-01  9.9998287215134996e-01  9.9998090491233349e-01  9.9997916527918973e-01  9.9997766669229027e-01  9.9997639981428743e-01  9.9997534356976348e-01  9.9997447208095402e-01  9.9997375876575378e-01  9.9997317858440737e-01  9.9997270911961644e-01  9.9997233095838201e-01  9.9997202767845028e-01  9.9997178563072187e-01  9.9997159363384247e-01  9.9997144264854165e-01  9.9997132546889089e-01  9.9997123644914532e-01  9.9997117127388147e-01  9.9997112677339717e-01  9.9997110078333795e-01  9.9997109204649515e-01  9.9997110015476753e-01  9.9997112552983680e-01  9.9997116944207998e-01  9.9997123406824073e-01  9.9997132258926780e-01  9.9997143933040034e-01  9.9997158994554602e-01  9.9997178164696154e-01  9.9997202347835246e-01  9.9997232662356783e-01  9.9997270473230293e-01  9.9997317422560450e-01  9.9997375451353276e-01  9.9997446800882583e-01  9.9997533974512720e-01  9.9997639629685942e-01  9.9997766353248640e-01  9.9997916251623342e-01  9.9998090257206840e-01  9.9998287024336008e-01  9.9998501261178951e-01  9.9998721377129762e-01  9.9998926487787687e-01  9.9999083483111817e-01  9.9999147046454462e-01  9.9999083537841316e-01  9.9999058730959600e-01  9.9998958577486696e-01  9.9998802884070315e-01  9.9998621650158315e-01  9.9998437044035260e-01  9.9998262619843659e-01  9.9998105430443562e-01  9.9997968217716726e-01  9.9997851103171309e-01  9.9997752762326009e-01  9.9997671183680870e-01  9.9997604133362483e-01  9.9997549420578624e-01  9.9997505035906220e-01  9.9997469211276691e-01  9.9997440434356111e-01  9.9997417438104763e-01  9.9997399178396673e-01  9.9997384807360801e-01  9.9997373646795062e-01  9.9997365163961927e-01  9.9997358950860271e-01  9.9997354707379926e-01  9.9997352228392833e-01  9.9997351394675082e-01  9.9997352167523756e-01  9.9997354586962073e-01  9.9997358773494338e-01  9.9997364933452781e-01  9.9997373368041909e-01  9.9997384486217944e-01  9.9997398821512173e-01  9.9997417052742610e-01  9.9997440028210138e-01  9.9997468792282196e-01  9.9997504612054089e-01  9.9997548999737096e-01  9.9997603723107376e-01  9.9997670791135440e-01  9.9997752394006634e-01  9.9997850764832763e-01  9.9997967914189267e-01  9.9998105165449835e-01  9.9998262395773752e-01  9.9998436861682904e-01  9.9998621508360086e-01  9.9998802779293616e-01  9.9998958503322255e-01  9.9999058677646591e-01  9.9999083492203777e-01  9.9998926566096913e-01  9.9998958578790298e-01  9.9998964087088027e-01  9.9998911176602834e-01  9.9998815128783469e-01  9.9998697120325830e-01  9.9998573537137925e-01  9.9998454812293236e-01  9.9998346644654634e-01  9.9998251501652868e-01  9.9998169841439088e-01  9.9998100983257032e-01  9.9998043678735293e-01  9.9997996466181727e-01  9.9997957876570753e-01  9.9997926543918303e-01  9.9997901256400390e-01  9.9997880972561759e-01  9.9997864818206994e-01  9.9997852073691273e-01  9.9997842157437611e-01  9.9997834609054392e-01  9.9997829073890843e-01  9.9997825289965570e-01  9.9997823077682513e-01  9.9997822332475217e-01  9.9997823020398979e-01  9.9997825176652566e-01  9.9997828907019903e-01  9.9997834392241969e-01  9.9997841895341777e-01  9.9997851771879553e-01  9.9997864483003862e-01  9.9997880610877665e-01  9.9997900875553658e-01  9.9997926151452010e-01  9.9997957480073163e-01  9.9997996073110307e-01  9.9998043296249994e-01  9.9998100618061014e-01  9.9998169499624900e-01  9.9998251188547371e-01  9.9998346364657920e-01  9.9998454568694939e-01  9.9998573331913843e-01  9.9998696953868937e-01  9.9998814999620844e-01  9.9998911081023578e-01  9.9998964018804337e-01  9.9998958528723236e-01  9.9998926522766607e-01  9.9998721496523491e-01  9.9998802893673899e-01  9.9998911183813255e-01  9.9998968322931681e-01  9.9998969281421368e-01  9.9998930001658348e-01  9.9998867879387543e-01  9.9998796258068312e-01  9.9998723908721288e-01  9.9998655945753501e-01  9.9998594934986018e-01  9.9998541810574215e-01  9.9998496539533543e-01  9.9998458567147031e-01  9.9998427099632525e-01  9.9998401274105608e-01  9.9998380254552455e-01  9.9998363281131220e-01  9.9998349691267108e-01  9.9998338924559815e-01  9.9998330519098466e-01  9.9998324103852665e-01  9.9998319389915968e-01  9.9998316162203726e-01  9.9998314272475941e-01  9.9998313634149416e-01  9.9998314219116158e-01  9.9998316056662728e-01  9.9998319234517441e-01  9.9998323902000186e-01  9.9998330275181369e-01  9.9998338643830686e-01  9.9998349379699181e-01  9.9998362945257357e-01  9.9998379901294554e-01  9.9998400910596630e-01  9.9998426733038548e-01  9.9998458204493157e-01  9.9998496187534791e-01  9.9998541475473346e-01  9.9998594622394843e-01  9.9998655660496782e-01  9.9998723654672106e-01  9.9998796037976212e-01  9.9998867694675686e-01  9.9998929852216811e-01  9.9998969165350537e-01  9.9998968236337338e-01  9.9998911120629530e-01  9.9998802845731860e-01  9.9998721454357742e-01  9.9998501442537646e-01  9.9998621681567768e-01  9.9998815154548815e-01  9.9998969297302409e-01  9.9999060285962027e-01  9.9999096890116346e-01  9.9999095576194663e-01  9.9999071378414661e-01  9.9999035494374677e-01  9.9998995389248158e-01  9.9998955619426610e-01  9.9998918703763651e-01  9.9998885830399475e-01  9.9998857369942218e-01  9.9998833223934880e-01  9.9998813050353641e-01  9.9998796403273804e-01  9.9998782815385834e-01  9.9998771843836864e-01  9.9998763093368714e-01  9.9998756225974361e-01  9.9998750962994420e-01  9.9998747083373052e-01  9.9998744420354047e-01  9.9998742857973699e-01  9.9998742328141177e-01  9.9998742808741270e-01  9.9998744322970801e-01  9.9998746939975736e-01  9.9998750776721224e-01  9.9998756000887001e-01  9.9998762834346677e-01  9.9998771556452748e-01  9.9998782505758166e-01  9.9998796077905105e-01  9.9998812715958518e-01  9.9998832887262024e-01  9.9998857037595790e-01  9.9998885508662261e-01  9.9998918398424674e-01  9.9998955335614592e-01  9.9998995131263246e-01  9.9999035265526703e-01  9.9999071180848154e-01  9.9999095410722394e-01  9.9999096756040384e-01  9.9999060180941080e-01  9.9998969217252132e-01  9.9998815093727789e-01  9.9998621632854601e-01  9.9998501398616546e-01  9.9998287293570098e-01  9.9998437118350358e-01  9.9998697182591334e-01  9.9998930047304435e-01  9.9999096915461161e-01  9.9999199578993614e-01  9.9999252561381957e-01  9.9999271512478316e-01  9.9999269254850820e-01  9.9999255074269511e-01  9.9999235188140889e-01  9.9999213498343353e-01  9.9999192291097072e-01  9.9999172785816082e-01  9.9999155530515604e-01  9.9999140671703957e-01  9.9999128131351966e-01  9.9999117718911879e-01  9.9999109199729497e-01  9.9999102335106238e-01  9.9999096904478280e-01  9.9999092716696214e-01  9.9999089614941328e-01  9.9999087478176973e-01  9.9999086220947497e-01  9.9999085792620812e-01  9.9999086176714247e-01  9.9999087390632968e-01  9.9999089485918746e-01  9.9999092548908952e-01  9.9999096701474388e-01  9.9999102101200843e-01  9.9999108939911086e-01  9.9999117438723562e-01  9.9999127836750390e-01  9.9999140368893935e-01  9.9999155225772240e-01  9.9999172485295107e-01  9.9999192000642900e-01  9.9999213223297900e-01  9.9999234933154035e-01  9.9999254843118968e-01  9.9999269050267348e-01  9.9999271335982642e-01  9.9999252413137207e-01  9.9999199457703991e-01  9.9999096818322575e-01  9.9998929970108263e-01  9.9998697119986057e-01  9.9998437064407242e-01  9.9998287243318063e-01  9.9998090646748095e-01  9.9998262766715362e-01  9.9998573661446311e-01  9.9998867975014694e-01  9.9999095641166502e-01  9.9999252594827992e-01  9.9999351195303077e-01  9.9999407055514411e-01  9.9999433963146445e-01  9.9999442500087654e-01  9.9999440165044295e-01  9.9999431980470677e-01  9.9999421151909218e-01  9.9999409625961089e-01  9.9999398513535231e-01  9.9999388391394661e-01  9.9999379508079356e-01  9.9999371920024160e-01  9.9999365579023136e-01  9.9999360386897540e-01  9.9999356228649350e-01  9.9999352991860979e-01  9.9999350577536528e-01  9.9999348905801166e-01  9.9999347918650494e-01  9.9999347581130260e-01  9.9999347881760925e-01  9.9999348832641044e-01  9.9999350469359805e-01  9.9999352850580803e-01  9.9999356056861644e-01  9.9999360187887476e-01  9.9999365356743541e-01  9.9999371679036253e-01  9.9999379253451948e-01  9.9999388128559696e-01  9.9999398248109650e-01  9.9999409363540681e-01  9.9999420897847491e-01  9.9999431739650035e-01  9.9999439941651902e-01  9.9999442297402874e-01  9.9999433783348424e-01  9.9999406899517529e-01  9.9999351062646669e-01  9.9999252483633783e-01  9.9999095548226402e-01  9.9998867896051402e-01  9.9998573591646001e-01  9.9998262701504181e-01  9.9998090583899713e-01  9.9997916801818998e-01  9.9998105688969130e-01  9.9998455032633837e-01  9.9998796431047465e-01  9.9999071502951598e-01  9.9999271591424110e-01  9.9999407092902226e-01  9.9999493283252461e-01  9.9999544472588753e-01  9.9999572119054192e-01  9.9999584662816032e-01  9.9999587990921357e-01  9.9999586042404975e-01  9.9999581358214418e-01  9.9999575517562367e-01  9.9999569459889914e-01  9.9999563711701367e-01  9.9999558541180489e-01  9.9999554060850593e-01  9.9999550294194772e-01  9.9999547217937490e-01  9.9999544788273487e-01  9.9999542956717868e-01  9.9999541679403592e-01  9.9999540922336738e-01  9.9999540664218745e-01  9.9999540897811701e-01  9.9999541630367694e-01  9.9999542883275772e-01  9.9999544690756359e-01  9.9999547097071229e-01  9.9999550151264949e-01  9.9999553897830695e-01  9.9999558360795315e-01  9.9999563517414325e-01  9.9999569255802345e-01  9.9999575308241395e-01  9.9999581148456906e-01  9.9999585836961991e-01  9.9999587794204325e-01  9.9999584478604620e-01  9.9999571950223309e-01  9.9999544320875211e-01  9.9999493149079977e-01  9.9999406975290173e-01  9.9999271488025832e-01  9.9999071410263529e-01  9.9998796344881036e-01  9.9998454948885185e-01  9.9998105604759313e-01  9.9997916718240787e-01  9.9997767113629044e-01  9.9997968637294266e-01  9.9998347004167099e-01  9.9998724194084210e-01  9.9999035704344597e-01  9.9999269395290380e-01  9.9999434043506030e-01  9.9999544504791282e-01  9.9999615348582471e-01  9.9999658610698139e-01  9.9999683404076778e-01  9.9999696262801474e-01  9.9999701692592680e-01  9.9999702704582216e-01  9.9999701255223916e-01  9.9999698580261276e-01  9.9999695435850644e-01  9.9999692266740536e-01  9.9999689320553320e-01  9.9999686723781622e-01  9.9999684531354882e-01  9.9999682758352315e-01  9.9999681399887186e-01  9.9999680443292815e-01  9.9999679875379621e-01  9.9999679686573772e-01  9.9999679873047320e-01  9.9999680437437399e-01  9.9999681388329975e-01  9.9999682738292606e-01  9.9999684499838559e-01  9.9999686678188837e-01  9.9999689259032754e-01  9.9999692188525013e-01  9.9999695341418471e-01  9.9999698471330478e-01  9.9999701134587771e-01  9.9999702575820815e-01  9.9999701559695719e-01  9.9999696129748694e-01  9.9999683274415851e-01  9.9999658487157250e-01  9.9999615232750327e-01  9.9999544396897000e-01  9.9999433942336102e-01  9.9999269298289384e-01  9.9999035607971076e-01  9.9998724094490854e-01  9.9998346898302037e-01  9.9997968524444503e-01  9.9997766999106308e-01  9.9997640660121689e-01  9.9997851744262645e-01  9.9998252053128134e-01  9.9998656386304774e-01  9.9998995716038530e-01  9.9999255295040412e-01  9.9999442628627633e-01  9.9999572174007945e-01  9.9999658618021625e-01  9.9999714375157689e-01  9.9999749033484076e-01  9.9999769603049649e-01  9.9999781018564649e-01  9.9999786655027423e-01  9.9999788766048203e-01  9.9999788824244384e-01  9.9999787771759108e-01  9.9999786198081808e-01  9.9999784462939345e-01  9.9999782779404611e-01  9.9999781269031873e-01  9.9999779997753446e-01  9.9999778998802280e-01  9.9999778287020624e-01  9.9999777867571404e-01  9.9999777741012130e-01  9.9999777906009113e-01  9.9999778360330649e-01  9.9999779100306918e-01  9.9999780118511994e-01  9.9999781398910570e-01  9.9999782908223633e-01  9.9999784581515228e-01  9.9999786299043936e-01  9.9999787850053390e-01  9.9999788877300710e-01  9.9999788793633393e-01  9.9999786658843970e-01  9.9999781001674271e-01  9.9999769569208952e-01  9.9999748986472936e-01  9.9999714318167665e-01  9.9999658553161885e-01  9.9999572101975942e-01  9.9999442548591855e-01  9.9999255204794579e-01  9.9998995612498442e-01  9.9998656266451358e-01  9.9998251915490577e-01  9.9997851591052767e-01  9.9997640502109786e-01  9.9997535346152733e-01  9.9997753697027125e-01  9.9998170647486817e-01  9.9998595580841609e-01  9.9998956098590563e-01  9.9999235508339335e-01  9.9999440342337031e-01  9.9999584720274570e-01  9.9999683375350412e-01  9.9999748972573466e-01  9.9999791435153063e-01  9.9999818120499362e-01  9.9999834284171174e-01  9.9999843578760217e-01  9.9999848488511978e-01  9.9999850672867829e-01  9.9999851223069569e-01  9.9999850846740002e-01  9.9999849997015655e-01  9.9999848960858717e-01  9.9999847918210882e-01  9.9999846980807183e-01  9.9999846217055099e-01  9.9999845667633358e-01  9.9999845354923622e-01  9.9999845288636935e-01  9.9999845468831572e-01  9.9999845887210304e-01  9.9999846526855796e-01  9.9999847359926430e-01  9.9999848342635667e-01  9.9999849405897079e-01  9.9999850439558968e-01  9.9999851267044026e-01  9.9999851605911938e-01  9.9999851008027352e-01  9.9999848770624122e-01  9.9999843806673949e-01  9.9999834459966919e-01  9.9999818248344863e-01  9.9999791520143844e-01  9.9999749019691420e-01  9.9999683388627592e-01  9.9999584702234823e-01  9.9999440293771769e-01  9.9999235428478761e-01  9.9998955985759785e-01  9.9998595433707171e-01  9.9998170467054248e-01  9.9997753489552088e-01  9.9997535129617454e-01  9.9997448596741079e-01  9.9997672495903300e-01  9.9998102115900789e-01  9.9998542717790295e-01  9.9998919372232431e-01  9.9999213932531361e-01  9.9999432194866522e-01  9.9999588008415419e-01  9.9999696119529324e-01  9.9999769361504076e-01  9.9999817894765120e-01  9.9999849329292567e-01  9.9999869158705879e-01  9.9999881245279931e-01  9.9999888250594227e-01  9.9999891980605038e-01  9.9999893646331084e-01  9.9999894053235028e-01  9.9999893734828982e-01  9.9999893044595389e-01  9.9999892217718656e-01  9.9999891411410979e-01  9.9999890730564778e-01  9.9999890243309553e-01  9.9999889990508417e-01  9.9999889990913104e-01  9.9999890244461864e-01  9.9999890733949681e-01  9.9999891425254861e-01  9.9999892266150625e-01  9.9999893181743538e-01  9.9999894065542805e-01  9.9999894763306996e-01  9.9999895046487230e-01  9.9999894570596970e-01  9.9999892812134972e-01  9.9999888975433504e-01  9.9999881858089723e-01  9.9999869660952645e-01  9.9999849727146461e-01  9.9999818196999946e-01  9.9999769577629261e-01  9.9999696258306103e-01  9.9999588076854395e-01  9.9999432197766391e-01  9.9999213872619042e-01  9.9998919250988161e-01  9.9998542537092538e-01  9.9998101880696122e-01  9.9997672218192502e-01  9.9997448304156078e-01  9.9997377766274154e-01  9.9997605918336296e-01  9.9998045218055520e-01  9.9998497767300898e-01  9.9998886721486346e-01  9.9999192841127515e-01  9.9999421366851482e-01  9.9999585936267232e-01  9.9999701293539844e-01  9.9999780385891546e-01  9.9999833541416161e-01  9.9999868552391269e-01  9.9999891087168835e-01  9.9999905164627556e-01  9.9999913581680666e-01  9.9999918259469955e-01  9.9999920507196460e-01  9.9999921215167986e-01  9.9999920991623703e-01  9.9999920256918651e-01  9.9999919306228080e-01  9.9999918349856909e-01  9.9999917537457272e-01  9.9999916972512115e-01  9.9999916719141069e-01  9.9999916807065414e-01  9.9999917233639724e-01  9.9999917966229512e-01  9.9999918944786359e-01  9.9999920081772053e-01  9.9999921260780178e-01  9.9999922329041513e-01  9.9999923082555309e-01  9.9999923239555411e-01  9.9999922397701102e-01  9.9999919968631534e-01  9.9999915081392421e-01  9.9999906443771169e-01  9.9999892148097902e-01  9.9999869406932340e-01  9.9999834206950511e-01  9.9999780881924771e-01  9.9999701639015259e-01  9.9999586147744379e-01  9.9999421457599269e-01  9.9999192821158212e-01  9.9998886598587999e-01  9.9998497549221210e-01  9.9998044916102746e-01  9.9997605552839908e-01  9.9997377377950303e-01  9.9997320362200448e-01  9.9997551783250593e-01  9.9997998497464669e-01  9.9998460172762638e-01  9.9998858504947230e-01  9.9999173427465093e-01  9.9999409759439473e-01  9.9999580972866442e-01  9.9999701800919116e-01  9.9999785265775354e-01  9.9999841811096424e-01  9.9999879357118104e-01  9.9999903696727166e-01  9.9999918962748846e-01  9.9999928053932874e-01  9.9999932982914508e-01  9.9999935143296759e-01  9.9999935506056570e-01  9.9999934758889308e-01  9.9999933401277097e-01  9.9999931806534215e-01  9.9999930258906355e-01  9.9999928974821761e-01  9.9999928110477765e-01  9.9999927767138741e-01  9.9999927989049908e-01  9.9999928766763180e-01  9.9999930040443563e-01  9.9999931703651113e-01  9.9999933611598901e-01  9.9999935582244293e-01  9.9999937395117133e-01  9.9999938779404129e-01  9.9999939389375003e-01  9.9999938761560780e-01  9.9999936247480592e-01  9.9999930913850155e-01  9.9999921399797442e-01  9.9999905718396398e-01  9.9999880988856793e-01  9.9999843088899631e-01  9.9999786229837162e-01  9.9999702490751885e-01  9.9999581424032058e-01  9.9999410001865718e-01  9.9999173485288284e-01  9.9998858397853130e-01  9.9998459918954308e-01  9.9997998118596276e-01  9.9997551311952937e-01  9.9997319857157330e-01  9.9997274151526205e-01  9.9997508087641684e-01  9.9997960485175508e-01  9.9998429130107669e-01  9.9998834598616648e-01  9.9999156192217642e-01  9.9999398405492135e-01  9.9999574576650685e-01  9.9999699418716659e-01  9.9999785996227963e-01  9.9999844824709050e-01  9.9999883905858267e-01  9.9999909113273544e-01  9.9999924656200956e-01  9.9999933506557181e-01  9.9999937750603274e-01  9.9999938860726767e-01  9.9999937896090840e-01  9.9999935644310622e-01  9.9999932716464224e-01  9.9999929604771065e-01  9.9999926714507381e-01  9.9999924372291082e-01  9.9999922829137711e-01  9.9999922246381812e-01  9.9999922696098598e-01  9.9999924153494479e-01  9.9999926503508396e-01  9.9999929558325718e-01  9.9999933066814817e-01  9.9999936734578265e-01  9.9999940228331330e-01  9.9999943173585648e-01  9.9999945134319745e-01  9.9999945571587057e-01  9.9999943774602285e-01  9.9999938756901430e-01  9.9999929108155916e-01  9.9999912789982570e-01  9.9999886863205323e-01  9.9999847137242526e-01  9.9999787745417457e-01  9.9999700684157677e-01  9.9999575430305621e-01  9.9999398908758907e-01  9.9999156395522648e-01  9.9998834543310500e-01  9.9998428852682242e-01  9.9997960024177679e-01  9.9997507494151006e-01  9.9997273509227658e-01  9.9997237196763866e-01  9.9997473064058040e-01  9.9997929806790953e-01  9.9998403752811293e-01  9.9998814613764309e-01  9.9999141201459252e-01  9.9999387752893354e-01  9.9999567489616770e-01  9.9999695089669538e-01  9.9999783625915417e-01  9.9999843641649622e-01  9.9999883172549786e-01  9.9999908127200676e-01  9.9999922751708081e-01  9.9999930061920028e-01  9.9999932202869135e-01  9.9999930729037267e-01  9.9999926811961193e-01  9.9999921385798640e-01  9.9999915239793491e-01  9.9999909070086401e-01  9.9999903492375808e-01  9.9999899040322060e-01  9.9999896129917365e-01  9.9999895047392551e-01  9.9999895906477121e-01  9.9999898652175667e-01  9.9999903069125218e-01  9.9999908802088366e-01  9.9999915409479712e-01  9.9999922386469475e-01  9.9999929200909743e-01  9.9999935301581167e-01  9.9999940109162500e-01  9.9999942977664980e-01  9.9999943123124302e-01  9.9999939513059666e-01  9.9999930709305651e-01  9.9999914654358901e-01  9.9999888390307989e-01  9.9999847702292743e-01  9.9999786691381931e-01  9.9999697315883518e-01  9.9999569016606338e-01  9.9999388699994574e-01  9.9999141666767899e-01  9.9998814677163983e-01  9.9998403482318321e-01  9.9997929268559471e-01  9.9997472337178583e-01  9.9997236400165423e-01  9.9997207851396797e-01  9.9997445191420742e-01  9.9997905228789896e-01  9.9998383160711035e-01  9.9998798025482216e-01  9.9999128246199864e-01  9.9999377843249182e-01  9.9999559922094949e-01  9.9999689099229394e-01  9.9999778411453255e-01  9.9999838374575578e-01  9.9999876997927750e-01  9.9999900165314060e-01  9.9999912106692967e