<?xml version="1.0"?>
<VTKFile type="UnstructuredGrid"  version="0.1"  >
<UnstructuredGrid>
<Piece  NumberOfPoints="5101" NumberOfCells="10000">
<Points>
<DataArray  type="Float64"  NumberOfComponents="3"  format="ascii">0 0 0  0.2 0 0  0.4 0 0  0.6 0 0  0.8 0 0  1 0 0  1.2 0 0  1.4 0 0  1.6 0 0  1.8 0 0  2 0 0  2.2 0 0  2.4 0 0  2.6 0 0  2.8 0 0  3 0 0  3.2 0 0  3.4 0 0  3.6 0 0  3.8 0 0  4 0 0  4.2 0 0  4.4 0 0  4.6 0 0  4.8 0 0  5 0 0  5.2 0 0  5.4 0 0  5.6 0 0  5.8 0 0  6 0 0  6.2 0 0  6.4 0 0  6.6 0 0  6.8 0 0  7 0 0  7.2 0 0  7.4 0 0  7.6 0 0  7.8 0 0  8 0 0  8.199999999999999 0 0  8.4 0 0  8.6 0 0  8.800000000000001 0 0  9 0 0  9.199999999999999 0 0  9.4 0 0  9.6 0 0  9.800000000000001 0 0  10 0 0  0 0.2 0  0.2 0.2 0  0.4 0.2 0  0.6 0.2 0  0.8 0.2 0  1 0.2 0  1.2 0.2 0  1.4 0.2 0  1.6 0.2 0  1.8 0.2 0  2 0.2 0  2.2 0.2 0  2.4 0.2 0  2.6 0.2 0  2.8 0.2 0  3 0.2 0  3.2 0.2 0  3.4 0.2 0  3.6 0.2 0  3.8 0.2 0  4 0.2 0  4.2 0.2 0  4.4 0.2 0  4.6 0.2 0  4.8 0.2 0  5 0.2 0  5.2 0.2 0  5.4 0.2 0  5.6 0.2 0  5.8 0.2 0  6 0.2 0  6.2 0.2 0  6.4 0.2 0  6.6 0.2 0  6.8 0.2 0  7 0.2 0  7.2 0.2 0  7.4 0.2 0  7.6 0.2 0  7.8 0.2 0  8 0.2 0  8.199999999999999 0.2 0  8.4 0.2 0  8.6 0.2 0  8.800000000000001 0.2 0  9 0.2 0  9.199999999999999 0.2 0  9.4 0.2 0  9.6 0.2 0  9.800000000000001 0.2 0  10 0.2 0  0 0.4 0  0.2 0.4 0  0.4 0.4 0  0.6 0.4 0  0.8 0.4 0  1 0.4 0  1.2 0.4 0  1.4 0.4 0  1.6 0.4 0  1.8 0.4 0  2 0.4 0  2.2 0.4 0  2.4 0.4 0  2.6 0.4 0  2.8 0.4 0  3 0.4 0  3.2 0.4 0  3.4 0.4 0  3.6 0.4 0  3.8 0.4 0  4 0.4 0  4.2 0.4 0  4.4 0.4 0  4.6 0.4 0  4.8 0.4 0  5 0.4 0  5.2 0.4 0  5.4 0.4 0  5.6 0.4 0  5.8 0.4 0  6 0.4 0  6.2 0.4 0  6.4 0.4 0  6.6 0.4 0  6.8 0.4 0  7 0.4 0  7.2 0.4 0  7.4 0.4 0  7.6 0.4 0  7.8 0.4 0  8 0.4 0  8.199999999999999 0.4 0  8.4 0.4 0  8.6 0.4 0  8.800000000000001 0.4 0  9 0.4 0  9.199999999999999 0.4 0  9.4 0.4 0  9.6 0.4 0  9.800000000000001 0.4 0  10 0.4 0  0 0.6 0  0.2 0.6 0  0.4 0.6 0  0.6 0.6 0  0.8 0.6 0  1 0.6 0  1.2 0.6 0  1.4 0.6 0  1.6 0.6 0  1.8 0.6 0  2 0.6 0  2.2 0.6 0  2.4 0.6 0  2.6 0.6 0  2.8 0.6 0  3 0.6 0  3.2 0.6 0  3.4 0.6 0  3.6 0.6 0  3.8 0.6 0  4 0.6 0  4.2 0.6 0  4.4 0.6 0  4.6 0.6 0  4.8 0.6 0  5 0.6 0  5.2 0.6 0  5.4 0.6 0  5.6 0.6 0  5.8 0.6 0  6 0.6 0  6.2 0.6 0  6.4 0.6 0  6.6 0.6 0  6.8 0.6 0  7 0.6 0  7.2 0.6 0  7.4 0.6 0  7.6 0.6 0  7.8 0.6 0  8 0.6 0  8.199999999999999 0.6 0  8.4 0.6 0  8.6 0.6 0  8.800000000000001 0.6 0  9 0.6 0  9.199999999999999 0.6 0  9.4 0.6 0  9.6 0.6 0  9.800000000000001 0.6 0  10 0.6 0  0 0.8 0  0.2 0.8 0  0.4 0.8 0  0.6 0.8 0  0.8 0.8 0  1 0.8 0  1.2 0.8 0  1.4 0.8 0  1.6 0.8 0  1.8 0.8 0  2 0.8 0  2.2 0.8 0  2.4 0.8 0  2.6 0.8 0  2.8 0.8 0  3 0.8 0  3.2 0.8 0  3.4 0.8 0  3.6 0.8 0  3.8 0.8 0  4 0.8 0  4.2 0.8 0  4.4 0.8 0  4.6 0.8 0  4.8 0.8 0  5 0.8 0  5.2 0.8 0  5.4 0.8 0  5.6 0.8 0  5.8 0.8 0  6 0.8 0  6.2 0.8 0  6.4 0.8 0  6.6 0.8 0  6.8 0.8 0  7 0.8 0  7.2 0.8 0  7.4 0.8 0  7.6 0.8 0  7.8 0.8 0  8 0.8 0  8.199999999999999 0.8 0  8.4 0.8 0  8.6 0.8 0  8.800000000000001 0.8 0  9 0.8 0  9.199999999999999 0.8 0  9.4 0.8 0  9.6 0.8 0  9.800000000000001 0.8 0  10 0.8 0  0 1 0  0.2 1 0  0.4 1 0  0.6 1 0  0.8 1 0  1 1 0  1.2 1 0  1.4 1 0  1.6 1 0  1.8 1 0  2 1 0  2.2 1 0  2.4 1 0  2.6 1 0  2.8 1 0  3 1 0  3.2 1 0  3.4 1 0  3.6 1 0  3.8 1 0  4 1 0  4.2 1 0  4.4 1 0  4.6 1 0  4.8 1 0  5 1 0  5.2 1 0  5.4 1 0  5.6 1 0  5.8 1 0  6 1 0  6.2 1 0  6.4 1 0  6.6 1 0  6.8 1 0  7 1 0  7.2 1 0  7.4 1 0  7.6 1 0  7.8 1 0  8 1 0  8.199999999999999 1 0  8.4 1 0  8.6 1 0  8.800000000000001 1 0  9 1 0  9.199999999999999 1 0  9.4 1 0  9.6 1 0  9.800000000000001 1 0  10 1 0  0 1.2 0  0.2 1.2 0  0.4 1.2 0  0.6 1.2 0  0.8 1.2 0  1 1.2 0  1.2 1.2 0  1.4 1.2 0  1.6 1.2 0  1.8 1.2 0  2 1.2 0  2.2 1.2 0  2.4 1.2 0  2.6 1.2 0  2.8 1.2 0  3 1.2 0  3.2 1.2 0  3.4 1.2 0  3.6 1.2 0  3.8 1.2 0  4 1.2 0  4.2 1.2 0  4.4 1.2 0  4.6 1.2 0  4.8 1.2 0  5 1.2 0  5.2 1.2 0  5.4 1.2 0  5.6 1.2 0  5.8 1.2 0  6 1.2 0  6.2 1.2 0  6.4 1.2 0  6.6 1.2 0  6.8 1.2 0  7 1.2 0  7.2 1.2 0  7.4 1.2 0  7.6 1.2 0  7.8 1.2 0  8 1.2 0  8.199999999999999 1.2 0  8.4 1.2 0  8.6 1.2 0  8.800000000000001 1.2 0  9 1.2 0  9.199999999999999 1.2 0  9.4 1.2 0  9.6 1.2 0  9.800000000000001 1.2 0  10 1.2 0  0 1.4 0  0.2 1.4 0  0.4 1.4 0  0.6 1.4 0  0.8 1.4 0  1 1.4 0  1.2 1.4 0  1.4 1.4 0  1.6 1.4 0  1.8 1.4 0  2 1.4 0  2.2 1.4 0  2.4 1.4 0  2.6 1.4 0  2.8 1.4 0  3 1.4 0  3.2 1.4 0  3.4 1.4 0  3.6 1.4 0  3.8 1.4 0  4 1.4 0  4.2 1.4 0  4.4 1.4 0  4.6 1.4 0  4.8 1.4 0  5 1.4 0  5.2 1.4 0  5.4 1.4 0  5.6 1.4 0  5.8 1.4 0  6 1.4 0  6.2 1.4 0  6.4 1.4 0  6.6 1.4 0  6.8 1.4 0  7 1.4 0  7.2 1.4 0  7.4 1.4 0  7.6 1.4 0  7.8 1.4 0  8 1.4 0  8.199999999999999 1.4 0  8.4 1.4 0  8.6 1.4 0  8.800000000000001 1.4 0  9 1.4 0  9.199999999999999 1.4 0  9.4 1.4 0  9.6 1.4 0  9.800000000000001 1.4 0  10 1.4 0  0 1.6 0  0.2 1.6 0  0.4 1.6 0  0.6 1.6 0  0.8 1.6 0  1 1.6 0  1.2 1.6 0  1.4 1.6 0  1.6 1.6 0  1.8 1.6 0  2 1.6 0  2.2 1.6 0  2.4 1.6 0  2.6 1.6 0  2.8 1.6 0  3 1.6 0  3.2 1.6 0  3.4 1.6 0  3.6 1.6 0  3.8 1.6 0  4 1.6 0  4.2 1.6 0  4.4 1.6 0  4.6 1.6 0  4.8 1.6 0  5 1.6 0  5.2 1.6 0  5.4 1.6 0  5.6 1.6 0  5.8 1.6 0  6 1.6 0  6.2 1.6 0  6.4 1.6 0  6.6 1.6 0  6.8 1.6 0  7 1.6 0  7.2 1.6 0  7.4 1.6 0  7.6 1.6 0  7.8 1.6 0  8 1.6 0  8.199999999999999 1.6 0  8.4 1.6 0  8.6 1.6 0  8.800000000000001 1.6 0  9 1.6 0  9.199999999999999 1.6 0  9.4 1.6 0  9.6 1.6 0  9.800000000000001 1.6 0  10 1.6 0  0 1.8 0  0.2 1.8 0  0.4 1.8 0  0.6 1.8 0  0.8 1.8 0  1 1.8 0  1.2 1.8 0  1.4 1.8 0  1.6 1.8 0  1.8 1.8 0  2 1.8 0  2.2 1.8 0  2.4 1.8 0  2.6 1.8 0  2.8 1.8 0  3 1.8 0  3.2 1.8 0  3.4 1.8 0  3.6 1.8 0  3.8 1.8 0  4 1.8 0  4.2 1.8 0  4.4 1.8 0  4.6 1.8 0  4.8 1.8 0  5 1.8 0  5.2 1.8 0  5.4 1.8 0  5.6 1.8 0  5.8 1.8 0  6 1.8 0  6.2 1.8 0  6.4 1.8 0  6.6 1.8 0  6.8 1.8 0  7 1.8 0  7.2 1.8 0  7.4 1.8 0  7.6 1.8 0  7.8 1.8 0  8 1.8 0  8.199999999999999 1.8 0  8.4 1.8 0  8.6 1.8 0  8.800000000000001 1.8 0  9 1.8 0  9.199999999999999 1.8 0  9.4 1.8 0  9.6 1.8 0  9.800000000000001 1.8 0  10 1.8 0  0 2 0  0.2 2 0  0.4 2 0  0.6 2 0  0.8 2 0  1 2 0  1.2 2 0  1.4 2 0  1.6 2 0  1.8 2 0  2 2 0  2.2 2 0  2.4 2 0  2.6 2 0  2.8 2 0  3 2 0  3.2 2 0  3.4 2 0  3.6 2 0  3.8 2 0  4 2 0  4.2 2 0  4.4 2 0  4.6 2 0  4.8 2 0  5 2 0  5.2 2 0  5.4 2 0  5.6 2 0  5.8 2 0  6 2 0  6.2 2 0  6.4 2 0  6.6 2 0  6.8 2 0  7 2 0  7.2 2 0  7.4 2 0  7.6 2 0  7.8 2 0  8 2 0  8.199999999999999 2 0  8.4 2 0  8.6 2 0  8.800000000000001 2 0  9 2 0  9.199999999999999 2 0  9.4 2 0  9.6 2 0  9.800000000000001 2 0  10 2 0  0 2.2 0  0.2 2.2 0  0.4 2.2 0  0.6 2.2 0  0.8 2.2 0  1 2.2 0  1.2 2.2 0  1.4 2.2 0  1.6 2.2 0  1.8 2.2 0  2 2.2 0  2.2 2.2 0  2.4 2.2 0  2.6 2.2 0  2.8 2.2 0  3 2.2 0  3.2 2.2 0  3.4 2.2 0  3.6 2.2 0  3.8 2.2 0  4 2.2 0  4.2 2.2 0  4.4 2.2 0  4.6 2.2 0  4.8 2.2 0  5 2.2 0  5.2 2.2 0  5.4 2.2 0  5.6 2.2 0  5.8 2.2 0  6 2.2 0  6.2 2.2 0  6.4 2.2 0  6.6 2.2 0  6.8 2.2 0  7 2.2 0  7.2 2.2 0  7.4 2.2 0  7.6 2.2 0  7.8 2.2 0  8 2.2 0  8.199999999999999 2.2 0  8.4 2.2 0  8.6 2.2 0  8.800000000000001 2.2 0  9 2.2 0  9.199999999999999 2.2 0  9.4 2.2 0  9.6 2.2 0  9.800000000000001 2.2 0  10 2.2 0  0 2.4 0  0.2 2.4 0  0.4 2.4 0  0.6 2.4 0  0.8 2.4 0  1 2.4 0  1.2 2.4 0  1.4 2.4 0  1.6 2.4 0  1.8 2.4 0  2 2.4 0  2.2 2.4 0  2.4 2.4 0  2.6 2.4 0  2.8 2.4 0  3 2.4 0  3.2 2.4 0  3.4 2.4 0  3.6 2.4 0  3.8 2.4 0  4 2.4 0  4.2 2.4 0  4.4 2.4 0  4.6 2.4 0  4.8 2.4 0  5 2.4 0  5.2 2.4 0  5.4 2.4 0  5.6 2.4 0  5.8 2.4 0  6 2.4 0  6.2 2.4 0  6.4 2.4 0  6.6 2.4 0  6.8 2.4 0  7 2.4 0  7.2 2.4 0  7.4 2.4 0  7.6 2.4 0  7.8 2.4 0  8 2.4 0  8.199999999999999 2.4 0  8.4 2.4 0  8.6 2.4 0  8.800000000000001 2.4 0  9 2.4 0  9.199999999999999 2.4 0  9.4 2.4 0  9.6 2.4 0  9.800000000000001 2.4 0  10 2.4 0  0 2.6 0  0.2 2.6 0  0.4 2.6 0  0.6 2.6 0  0.8 2.6 0  1 2.6 0  1.2 2.6 0  1.4 2.6 0  1.6 2.6 0  1.8 2.6 0  2 2.6 0  2.2 2.6 0  2.4 2.6 0  2.6 2.6 0  2.8 2.6 0  3 2.6 0  3.2 2.6 0  3.4 2.6 0  3.6 2.6 0  3.8 2.6 0  4 2.6 0  4.2 2.6 0  4.4 2.6 0  4.6 2.6 0  4.8 2.6 0  5 2.6 0  5.2 2.6 0  5.4 2.6 0  5.6 2.6 0  5.8 2.6 0  6 2.6 0  6.2 2.6 0  6.4 2.6 0  6.6 2.6 0  6.8 2.6 0  7 2.6 0  7.2 2.6 0  7.4 2.6 0  7.6 2.6 0  7.8 2.6 0  8 2.6 0  8.199999999999999 2.6 0  8.4 2.6 0  8.6 2.6 0  8.800000000000001 2.6 0  9 2.6 0  9.199999999999999 2.6 0  9.4 2.6 0  9.6 2.6 0  9.800000000000001 2.6 0  10 2.6 0  0 2.8 0  0.2 2.8 0  0.4 2.8 0  0.6 2.8 0  0.8 2.8 0  1 2.8 0  1.2 2.8 0  1.4 2.8 0  1.6 2.8 0  1.8 2.8 0  2 2.8 0  2.2 2.8 0  2.4 2.8 0  2.6 2.8 0  2.8 2.8 0  3 2.8 0  3.2 2.8 0  3.4 2.8 0  3.6 2.8 0  3.8 2.8 0  4 2.8 0  4.2 2.8 0  4.4 2.8 0  4.6 2.8 0  4.8 2.8 0  5 2.8 0  5.2 2.8 0  5.4 2.8 0  5.6 2.8 0  5.8 2.8 0  6 2.8 0  6.2 2.8 0  6.4 2.8 0  6.6 2.8 0  6.8 2.8 0  7 2.8 0  7.2 2.8 0  7.4 2.8 0  7.6 2.8 0  7.8 2.8 0  8 2.8 0  8.199999999999999 2.8 0  8.4 2.8 0  8.6 2.8 0  8.800000000000001 2.8 0  9 2.8 0  9.199999999999999 2.8 0  9.4 2.8 0  9.6 2.8 0  9.800000000000001 2.8 0  10 2.8 0  0 3 0  0.2 3 0  0.4 3 0  0.6 3 0  0.8 3 0  1 3 0  1.2 3 0  1.4 3 0  1.6 3 0  1.8 3 0  2 3 0  2.2 3 0  2.4 3 0  2.6 3 0  2.8 3 0  3 3 0  3.2 3 0  3.4 3 0  3.6 3 0  3.8 3 0  4 3 0  4.2 3 0  4.4 3 0  4.6 3 0  4.8 3 0  5 3 0  5.2 3 0  5.4 3 0  5.6 3 0  5.8 3 0  6 3 0  6.2 3 0  6.4 3 0  6.6 3 0  6.8 3 0  7 3 0  7.2 3 0  7.4 3 0  7.6 3 0  7.8 3 0  8 3 0  8.199999999999999 3 0  8.4 3 0  8.6 3 0  8.800000000000001 3 0  9 3 0  9.199999999999999 3 0  9.4 3 0  9.6 3 0  9.800000000000001 3 0  10 3 0  0 3.2 0  0.2 3.2 0  0.4 3.2 0  0.6 3.2 0  0.8 3.2 0  1 3.2 0  1.2 3.2 0  1.4 3.2 0  1.6 3.2 0  1.8 3.2 0  2 3.2 0  2.2 3.2 0  2.4 3.2 0  2.6 3.2 0  2.8 3.2 0  3 3.2 0  3.2 3.2 0  3.4 3.2 0  3.6 3.2 0  3.8 3.2 0  4 3.2 0  4.2 3.2 0  4.4 3.2 0  4.6 3.2 0  4.8 3.2 0  5 3.2 0  5.2 3.2 0  5.4 3.2 0  5.6 3.2 0  5.8 3.2 0  6 3.2 0  6.2 3.2 0  6.4 3.2 0  6.6 3.2 0  6.8 3.2 0  7 3.2 0  7.2 3.2 0  7.4 3.2 0  7.6 3.2 0  7.8 3.2 0  8 3.2 0  8.199999999999999 3.2 0  8.4 3.2 0  8.6 3.2 0  8.800000000000001 3.2 0  9 3.2 0  9.199999999999999 3.2 0  9.4 3.2 0  9.6 3.2 0  9.800000000000001 3.2 0  10 3.2 0  0 3.4 0  0.2 3.4 0  0.4 3.4 0  0.6 3.4 0  0.8 3.4 0  1 
[...]
<PointData  Scalars="f_11"> 
<DataArray  type="Float64"  Name="f_11"  format="ascii">3.9256241625405623e+00  3.9226692344882310e+00  3.9152056973556437e+00  3.9039047209155040e+00  3.8892044153264762e+00  3.8714587571295889e+00  3.8509450185998486e+00  3.8278798254460100e+00  3.8024328068109239e+00  3.7747376917399071e+00  3.7449021871179449e+00  3.7130165832069499e+00  3.6791614348718702e+00  3.6434144071106074e+00  3.6058563553563259e+00  3.5665766251146405e+00  3.5256775035061860e+00  3.4832777114951154e+00  3.4395148038249519e+00  3.3945463467824335e+00  3.3485497757523039e+00  3.3017208951510417e+00  3.2542710684741225e+00  3.2064232466665223e+00  3.1584070853825019e+00  3.1104534901460741e+00  3.0627889877537493e+00  3.0156303411527277e+00  2.9691797987887636e+00  2.9236213013350549e+00  2.8791178695087267e+00  2.8358102821737918e+00  2.7938170415817769e+00  2.7532355279371012e+00  2.7141441793371954e+00  2.6766055003840803e+00  2.6406697024906212e+00  2.6063788058550839e+00  2.5737710796104891e+00  2.5428857548748987e+00  2.5137680079615752e+00  2.4864742752804387e+00  2.4610780165857333e+00  2.4376761190526253e+00  2.4163961342617042e+00  2.3974047762664257e+00  2.3809176796670610e+00  2.3672117797326275e+00  2.3566402034714398e+00  2.3496378798820179e+00  2.3468752580977679e+00  3.9285419340373449e+00  3.9255876218558861e+00  3.9181369075168293e+00  3.9068519584511026e+00  3.8921566526319809e+00  3.8744116290992623e+00  3.8538905284784035e+00  3.8308096830360370e+00  3.8053369322003663e+00  3.7776044664542363e+00  3.7477181742377672e+00  3.7157664949570330e+00  3.6818281090785967e+00  3.6459788901142947e+00  3.6082980870963626e+00  3.5688737495472562e+00  3.5278073135709764e+00  3.4852172297338941e+00  3.4412414857081695e+00  3.3960388777421935e+00  3.3497889163518981e+00  3.3026903146225530e+00  3.2549580981121871e+00  3.2068194839916195e+00  3.1585087891289572e+00  3.1102617247283604e+00  3.0623095016082074e+00  3.0148731921962941e+00  2.9681587672657788e+00  2.9223531509240517e+00  2.8776215285399505e+00  2.8341060170977110e+00  2.7919256855689141e+00  2.7511778115156975e+00  2.7119401909344192e+00  2.6742742860505331e+00  2.6382289986385103e+00  2.6038448880104932e+00  2.5711587043879138e+00  2.5402081705131190e+00  2.5110370125137731e+00  2.4837002977088858e+00  2.4582702307824413e+00  2.4348425041726469e+00  2.4135437325871294e+00  2.3945393846896019e+00  2.3780452739435778e+00  2.3643350755969297e+00  2.3537689681202414e+00  2.3467681727151417e+00  2.3439908932261546e+00  3.9359155992772834e+00  3.9329468490231609e+00  3.9254940027611211e+00  3.9142036573456367e+00  3.8994978691472566e+00  3.8817292405882480e+00  3.8611687938828374e+00  3.8380273733194867e+00  3.8124681948935835e+00  3.7846180507017677e+00  3.7545773985250341e+00  3.7224290969408176e+00  3.6882463681381275e+00  3.6520999723344891e+00  3.6140647064988820e+00  3.5742251859938863e+00  3.5326808195148982e+00  3.4895498238408629e+00  3.4449720902630188e+00  3.3991107080077438e+00  3.3521519806149480e+00  3.3043038418580473e+00  3.2557926854204822e+00  3.2068587564448041e+00  3.1577503950384278e+00  3.1087175486487459e+00  3.0600050582656610e+00  3.0118462542237197e+00  2.9644573627272766e+00  2.9180331287512904e+00  2.8727439214065984e+00  2.8287344289224561e+00  2.7861238987263834e+00  2.7450077561701680e+00  2.7054603573249834e+00  2.6675386011195052e+00  2.6312861394037115e+00  2.5967379700432849e+00  2.5639252653632303e+00  2.5328803648818323e+00  2.5036419363388207e+00  2.4762603865418176e+00  2.4508036453138162e+00  2.4273635775765521e+00  2.4060631276379407e+00  2.3870648489540267e+00  2.3705806857156166e+00  2.3568831118322509e+00  2.3463257073813888e+00  2.3393288118387230e+00  2.3365387085602971e+00  3.9470708051127579e+00  3.9440831978224278e+00  3.9366283767543724e+00  3.9253319557820210e+00  3.9106107622102293e+00  3.8928101108426705e+00  3.8721931331236070e+00  3.8489632954290496e+00  3.8232754252989798e+00  3.7952477288280093e+00  3.7649715956850338e+00  3.7325206877583192e+00  3.6979591416057223e+00  3.6613491679099326e+00  3.6227580581462702e+00  3.5822645733216714e+00  3.5399645840525871e+00  3.4959757576570438e+00  3.4504410313916396e+00  3.4035305907872311e+00  3.3554420991211713e+00  3.3063990064910667e+00  3.2566469040504300e+00  3.2064480684430956e+00  3.1560745387491878e+00  3.1058002495328663e+00  3.0558928727500128e+00  3.0066060691228342e+00  2.9581728024316205e+00  2.9108002346531521e+00  2.8646665218298595e+00  2.8199196081341116e+00  2.7766779090266378e+00  2.7350326160873331e+00  2.6950512641339683e+00  2.6567821779989020e+00  2.6202594513491593e+00  2.5855081853940085e+00  2.5525498118420082e+00  2.5214074252213781e+00  2.4921111446255408e+00  2.4647036021026394e+00  2.4392457391478808e+00  2.4158230932453693e+00  2.3945529874223466e+00  2.3755925443896251e+00  2.3591490889994411e+00  2.3454897016064074e+00  2.3349627830122093e+00  2.3279854077148818e+00  2.3251845212679503e+00  3.9615682260246432e+00  3.9585716187916558e+00  3.9511168217930912e+00  3.9398186163613227e+00  3.9250852859183443e+00  3.9072523977295970e+00  3.8865732234290871e+00  3.8632403596071607e+00  3.8373972584660776e+00  3.8091498976306926e+00  3.7785768846093561e+00  3.7457387170081282e+00  3.7106864123333541e+00  3.6734696607572155e+00  3.6341445663093030e+00  3.5927809198641105e+00  3.5494688346668282e+00  3.5043244636766611e+00  3.4574944294411090e+00  3.4091585502158330e+00  3.3595304622334119e+00  3.3088558340251764e+00  3.2574080494044351e+00  3.2054814877854154e+00  3.1533828195697247e+00  3.1014210085652434e+00  3.0498969144028072e+00  2.9990934665447573e+00  2.9492673135804486e+00  2.9006426470333446e+00  2.8534076003496742e+00  2.8077132937239351e+00  2.7636752984665294e+00  2.7213770799489554e+00  2.6808748695303892e+00  2.6422034106926233e+00  2.6053821006877307e+00  2.5704211748153600e+00  2.5373277249035167e+00  2.5061114826109359e+00  2.4767904170598389e+00  2.4493962912748470e+00  2.4239803888740705e+00  2.4006196843663079e+00  2.3794237601403201e+00  2.3605427701062140e+00  2.3441772479741827e+00  2.3305879806752694e+00  2.3201165602596263e+00  2.3131738188841759e+00  2.3103769270972956e+00  3.9790521134678181e+00  3.9760496022761060e+00  3.9686046789863845e+00  3.9573159469042452e+00  3.9425830057695999e+00  3.9247292112089855e+00  3.9039953157661476e+00  3.8805602681315174e+00  3.8545527480259376e+00  3.8260628913081991e+00  3.7951524651962725e+00  3.7618644366607814e+00  3.7262320747418856e+00  3.6882878234638761e+00  3.6480720093489025e+00  3.6056413238606315e+00  3.5610768618952449e+00  3.5144913383050915e+00  3.4660349610970056e+00  3.4158993447628077e+00  3.3643188361183261e+00  3.3115687308545914e+00  3.2579600986970685e+00  3.2038312969726013e+00  3.1495366884339417e+00  3.0954335080601347e+00  3.0418681477236511e+00  2.9891632615035220e+00  2.9376069937338314e+00  2.8874453118440409e+00  2.8388779590534710e+00  2.7920580347406059e+00  2.7470947699314712e+00  2.7040587686539905e+00  2.6629888631596028e+00  2.6238997675247768e+00  2.5867898650727721e+00  2.5516486749019998e+00  2.5184637618939054e+00  2.4872270483890331e+00  2.4579406374472517e+00  2.4306223633552091e+00  2.4053113577712888e+00  2.3820739472321377e+00  2.3610102812744547e+00  2.3422619157580171e+00  2.3260213436565995e+00  2.3125416517982260e+00  2.3021560620685335e+00  2.2952695327201380e+00  2.2924842997263366e+00  3.9992430795823171e+00  3.9962413230331939e+00  3.9888185035549597e+00  3.9775579798382688e+00  3.9628472055414745e+00  3.9449955177312619e+00  3.9242284705580408e+00  3.9007083924410062e+00  3.8745458211207238e+00  3.8458111490116722e+00  3.8145448956427654e+00  3.7807675451538572e+00  3.7444891901696189e+00  3.7057192598301913e+00  3.6644764445059095e+00  3.6207987651927596e+00  3.5747535261154533e+00  3.5264466564786296e+00  3.4760307177115144e+00  3.4237106724329878e+00  3.3697464405028077e+00  3.3144513673286218e+00  3.2581860421435693e+00  3.2013474272267550e+00  3.1443539279027202e+00  3.0876277188885357e+00  3.0315761790574958e+00  2.9765745210450301e+00  2.9229515506713071e+00  2.8709799772958746e+00  2.8208719463931908e+00  2.7727796669378399e+00  2.7268003406311898e+00  2.6829841890834425e+00  2.6413442536362965e+00  2.6018667680646974e+00  2.5645211889570025e+00  2.5292693154847514e+00  2.4960732614856318e+00  2.4649023111462154e+00  2.4357388783015903e+00  2.4085839032691467e+00  2.3834620797706951e+00  2.3604273188387257e+00  2.3395688938747643e+00  2.3210185700194979e+00  2.3049596683946643e+00  2.2916363692764894e+00  2.2813727950063005e+00  2.2745653066624554e+00  2.2718023542644610e+00  4.0219220803888298e+00  4.0189279172809824e+00  4.0115446283300766e+00  4.0003379313415524e+00  3.9856812433330586e+00  3.9678673228433921e+00  3.9471039867248967e+00  3.9235339367956650e+00  3.8972460661005357e+00  3.8682869058195051e+00  3.8366708817329886e+00  3.8023903655876925e+00  3.7654258579530873e+00  3.7257566769459096e+00  3.6833723474638074e+00  3.6382846871412338e+00  3.5905403083692073e+00  3.5402329206470000e+00  3.4875144545012757e+00  3.4326037029157006e+00  3.3757909844152656e+00  3.3174373846314698e+00  3.2579675227541940e+00  3.1978555428054127e+00  3.1376050659018873e+00  3.0777249549874677e+00  3.0187036516330306e+00  2.9609852642792780e+00  2.9049503595072634e+00  2.8509035638224054e+00  2.7990688534234196e+00  2.7495921264504850e+00  2.7025496339887174e+00  2.6579602844936945e+00  2.6157997609093564e+00  2.5760146964045889e+00  2.5385356740115381e+00  2.5032883815528506e+00  2.4702027471348593e+00  2.4392202430802667e+00  2.4102997691249559e+00  2.3834226315411819e+00  2.3585971627138536e+00  2.3358634993641956e+00  2.3152990394918875e+00  2.2970249293207412e+00  2.2812145146644545e+00  2.2681022647601297e+00  2.2580019274947603e+00  2.2513002427679352e+00  2.2485699088973061e+00  4.0469168394491843e+00  4.0439387752614477e+00  4.0366167303907190e+00  4.0254972994712572e+00  4.0109371580987867e+00  3.9932102870824049e+00  3.9725041337544487e+00  3.9489388157662106e+00  3.9225780261807626e+00  3.8934401155590850e+00  3.8615081493559211e+00  3.8267400201477431e+00  3.7890790840351154e+00  3.7484658404698292e+00  3.7048509973848729e+00  3.6582100340392731e+00  3.6085590199946118e+00  3.5559709762525298e+00  3.5005915024478513e+00  3.4426518278354288e+00  3.3824770207229626e+00  3.3204870050066728e+00  3.2571884734337928e+00  3.1931568558814720e+00  3.1290091139859495e+00  3.0653699759407873e+00  3.0028357922894804e+00  2.9419409686271085e+00  2.8831315843484502e+00  2.8267493965073900e+00  2.7730273619550485e+00  2.7220957147875402e+00  2.6739960646368659e+00  2.6287002396985986e+00  2.5861306779776880e+00  2.5461798334628574e+00  2.5087269895782986e+00  2.4736517808324630e+00  2.4408444426287428e+00  2.4102132774654765e+00  2.3816900623747319e+00  2.3552341863892745e+00  2.3308362688112583e+00  2.3085219159356596e+00  2.2883562163544426e+00  2.2704493697961330e+00  2.2549643793929435e+00  2.2421253745608278e+00  2.2322349930915397e+00  2.2256686669470027e+00  2.2229823505196018e+00  4.0740908468579962e+00  4.0711387874776745e+00  4.0639047272583824e+00  4.0529139598553687e+00  4.0385041283477996e+00  4.0209281490126259e+00  4.0003506771130457e+00  3.9768664030106011e+00  3.9505103380114703e+00  3.9212682537601604e+00  3.8890862586027275e+00  3.8538806962798540e+00  3.8155490139161006e+00  3.7739823310485727e+00  3.7290802915990167e+00  3.6807685405549355e+00  3.6290187379852106e+00  3.5738703807167238e+00  3.5154528561173755e+00  3.4540052002637216e+00  3.3898901868211255e+00  3.3235989595319650e+00  3.2557428130378283e+00  3.1870301933350063e+00  3.1182295020001112e+00  3.0501213686202604e+00  2.9834468252787287e+00  2.9188592713154615e+00  2.8568876081078671e+00  2.7979155027432872e+00  2.7421782001241550e+00  2.6897748112213451e+00  2.6406915703254756e+00  2.5948306454898895e+00  2.5520395665901745e+00  2.5121376852200252e+00  2.4749376968263723e+00  2.4402616821047061e+00  2.4079521327204261e+00  2.3778789844539072e+00  2.3499438751443917e+00  2.3240828019485065e+00  2.3002681929572288e+00  2.2785112081738963e+00  2.2588649440815343e+00  2.2414289638437781e+00  2.2263560434745879e+00  2.2138597850863255e+00  2.2042310433822809e+00  2.1978327539257472e+00  2.1952025181375445e+00  4.1033335910607098e+00  4.1004191140633051e+00  4.0933048125368474e+00  4.0824925017034035e+00  4.0682985302033483e+00  4.0509527397183334e+00  4.0305948284949054e+00  4.0072915353771723e+00  3.9810459760091530e+00  3.9518070843061301e+00  3.9194782977090354e+00  3.8839268057148142e+00  3.8449942295689068e+00  3.8025097594885136e+00  3.7563066984222093e+00  3.7062431570324819e+00  3.6522271709471368e+00  3.5942456856971239e+00  3.5323956312658975e+00  3.4669137642323551e+00  3.3982003681946784e+00  3.3268307940243802e+00  3.2535488914642277e+00  3.1792382701610369e+00  3.1048712157255194e+00  3.0314402908453797e+00  2.9598826692898017e+00  2.8910100121185467e+00  2.8254560422394439e+00  2.7636496448348749e+00  2.7058151629174936e+00  2.6519956000330236e+00  2.6020906872201675e+00  2.5559008398203642e+00  2.5131694492326635e+00  2.4736185987900288e+00  2.4369760569854693e+00  2.4029935726462162e+00  2.3714578260622194e+00  2.3421959559224388e+00  2.3150776127798580e+00  2.2900152278755708e+00  2.2669638225012547e+00  2.2459213252579500e+00  2.2269301155303332e+00  2.2100802016603893e+00  2.1955148550765435e+00  2.1834373724211100e+00  2.1741265007029078e+00  2.1679315571630662e+00  2.1653702092642861e+00  4.1345520774689231e+00  4.1316884597403343e+00  4.1247308612006801e+00  4.1141552990226860e+00  4.1002548645621175e+00  4.0832346377518487e+00  4.0632076764624241e+00  4.0402107833198579e+00  4.0142125235230441e+00  3.9851212114108385e+00  3.9527921535051025e+00  3.9170356066048888e+00  3.8776265774248122e+00  3.8343178720048852e+00  3.7868578696828834e+00  3.7350144159217034e+00  3.6786057954607556e+00  3.6175387792454829e+00  3.5518520672030442e+00  3.4817610529782081e+00  3.4076970087074820e+00  3.3303312999018746e+00  3.2505743409664243e+00  3.1695411227651209e+00  3.0884809834982918e+00  3.0086783370375207e+00  2.9313399626804548e+00  2.8574905870281939e+00  2.7878968045351047e+00  2.7230324508591983e+00  2.6630867715827975e+00  2.6080067696686848e+00  2.5575592510152392e+00  2.5113976806061160e+00  2.4691224632506659e+00  2.4303283023716569e+00  2.3946368960848123e+00  2.3617163831446444e+00  2.3312905222115154e+00  2.3031409424012619e+00  2.2771054408731088e+00  2.2530746451804973e+00  2.2309886796503995e+00  2.2108349042139475e+00  2.1926474184209828e+00  2.1765086585133666e+00  2.1625537814015900e+00  2.1509764906779711e+00  2.1420433836391872e+00  2.1360892842076953e+00  2.1336101925565063e+00  4.1676632827299676e+00  4.1648655248505353e+00  4.1581066221655831e+00  4.1478344874775122e+00  4.1343173408138423e+00  4.1177343260684491e+00  4.0981708603436795e+00  4.0756326582394102e+00  4.0500520134980063e+00  4.0212937892597616e+00  3.9891605205787006e+00  3.9533982078046086e+00  3.9137041975664695e+00  3.8697390135133976e+00  3.8211443098511233e+00  3.7675693093902649e+00  3.7087078726326430e+00  3.6443473915640574e+00  3.5744286140722910e+00  3.4991119984645676e+00  3.4188414180039821e+00  3.3343909535294873e+00  3.2468772918505859e+00  3.1577216135112325e+00  3.0685537505239084e+00  2.9810658150012284e+00  2.8968416393302165e+00  2.8171966759660663e+00  2.7430661552492976e+00  2.6749608534520730e+00  2.6129920235415209e+00  2.5569474007611084e+00  2.5063920927352203e+00  2.4607697477220993e+00  2.4194872840073702e+00  2.3819758764876435e+00  2.3477282811900588e+00  2.3163168148447708e+00  2.2873977555753409e+00  2.2607076002413140e+00  2.2360554673614343e+00  2.2133146299166322e+00  2.1924150432548122e+00  2.1733379076140502e+00  2.1561128063043720e+00  2.1408175635831213e+00  2.1275813122395739e+00  2.1165893555232209e+00  2.1080964096992636e+00  2.1024221147178346e+00  2.1000390121124459e+00  4.2025874529153153e+00  4.1998722033184377e+00  4.1933587107259767e+00  4.1834645600025304e+00  4.1704319602630084e+00  4.1544136113044159e+00  4.1354672077733508e+00  4.1135673828166484e+00  4.0886098239101143e+00  4.0604146689864447e+00  4.0287286452430413e+00  3.9932275865114084e+00  3.9535209564861158e+00  3.9091607133948250e+00  3.8596575292613031e+00  3.8045080453413740e+00  3.7432371568786746e+00  3.6754587511242534e+00  3.6009561048465497e+00  3.5197784526096512e+00  3.4323426303339604e+00  3.3395191335484649e+00  3.2426733139969253e+00  3.1436313868850778e+00  3.0445506604671735e+00  2.9477035878879052e+00  2.8552097707802786e+00  2.7687892216197962e+00  2.6895900715472196e+00  2.6181362894022491e+00  2.5543864100028615e+00  2.4978689616860863e+00  2.4478463590595130e+00  2.4034665793893972e+00  2.3638795725508883e+00  2.3283120790044554e+00  2.2961058169982662e+00  2.2667288561270267e+00  2.2397703602264323e+00  2.2149269731946668e+00  2.1919865982835240e+00  2.1708130697629362e+00  2.1513335557137170e+00  2.1335294567729277e+00  2.1174309935368480e+00  2.1031153028438472e+00  2.0907082352267410e+00  2.0803883155482432e+00  2.0723989042971152e+00  2.0670439344858567e+00  2.0647706362814411e+00  4.2392421707484198e+00  4.2366275547874856e+00  4.2304102834968589e+00  4.2209755660575778e+00  4.2085390284715469e+00  4.1932272358192275e+00  4.1750712179312357e+00  4.1540160253294642e+00  4.1299222844378569e+00  4.1025664049549073e+00  4.0716388692804291e+00  4.0367421755917237e+00  3.9973901689751736e+00  3.9530114811016794e+00  3.9029609605878290e+00  3.8465443827939692e+00  3.7830630298884498e+00  3.7118852367965935e+00  3.6325504515296143e+00  3.5449059496049111e+00  3.4492653450319728e+00  3.3465609163711587e+00  3.2384434614987998e+00  3.1272702940608466e+00  3.0159401979061760e+00  2.9075614311841966e+00  2.8050389403420257e+00  2.7106602791097547e+00  2.6258421734608342e+00  2.5510662995302384e+00  2.4860089384879802e+00  2.4297824366699308e+00  2.3812001059772663e+00  2.3390003175935377e+00  2.3020003981728046e+00  2.2691808961098694e+00  2.2397159054794638e+00  2.2129688456567500e+00  2.1884702634160798e+00  2.1658892701787020e+00  2.1450055693257286e+00  2.1256855761041162e+00  2.1078639417661345e+00  2.0915305818293515e+00  2.0767227854636117e+00  2.0635217362626190e+00  2.0520532413719401e+00  2.0424909648044176e+00  2.0350675981220583e+00  2.0300709428340120e+00  2.0279210122298674e+00  4.2775372018708069e+00  4.2750425331916730e+00  4.2691754310607406e+00  4.2602869325804313e+00  4.2485661449278656e+00  4.2341147326004496e+00  4.2169394315863276e+00  4.1969589899429272e+00  4.1740028704073842e+00  4.1478077696751834e+00  4.1180112269309541e+00  4.0841436390887482e+00  4.0456202870552298e+00  4.0017362150828060e+00  3.9516685069181889e+00  3.8944928849211626e+00  3.8292244242169762e+00  3.7548948334133234e+00  3.6706795039885547e+00  3.5760832483210003e+00  3.4711796684829377e+00  3.3568724538396113e+00  3.2351061009992845e+00  3.1089266553667834e+00  2.9822728720604652e+00  2.8595030203915739e+00  2.7446723259742556e+00  2.6409042844788244e+00  2.5499381116994209e+00  2.4720957538577832e+00  2.4065487744545919e+00  2.3517478267916081e+00  2.3058497060235608e+00  2.2670388201480032e+00  2.2337176776275713e+00  2.2045863887916495e+00  2.1786481677696186e+00  2.1551752986894730e+00  2.1336601440774099e+00  2.1137657474526170e+00  2.0952831063830812e+00  2.0780975516253410e+00  2.0621642073713073e+00  2.0474914390685139e+00  2.0341309409339390e+00  2.0221731413225030e+00  2.0117472502317755e+00  2.0030240599370259e+00  1.9962262844850329e+00  1.9916251686991309e+00  1.9896115388898425e+00  4.3173701811410510e+00  4.3150155464010265e+00  4.3095543703183843e+00  4.3013020283216887e+00  4.2904218281986592e+00  4.2769927281383850e+00  4.2610009323990132e+00  4.2423441230161609e+00  4.2208272015700414e+00  4.1961548385710117e+00  4.1679197991227719e+00  4.1355878575813705e+00  4.0984804134085406e+00  4.0557572784480751e