<?xml version="1.0"?>
<VTKFile type="UnstructuredGrid"  version="0.1"  >
<UnstructuredGrid>
<Piece  NumberOfPoints="5101" NumberOfCells="10000">
<Points>
<DataArray  type="Float64"  NumberOfComponents="3"  format="ascii">0 0 0  0.2 0 0  0.4 0 0  0.6 0 0  0.8 0 0  1 0 0  1.2 0 0  1.4 0 0  1.6 0 0  1.8 0 0  2 0 0  2.2 0 0  2.4 0 0  2.6 0 0  2.8 0 0  3 0 0  3.2 0 0  3.4 0 0  3.6 0 0  3.8 0 0  4 0 0  4.2 0 0  4.4 0 0  4.6 0 0  4.8 0 0  5 0 0  5.2 0 0  5.4 0 0  5.6 0 0  5.8 0 0  6 0 0  6.2 0 0  6.4 0 0  6.6 0 0  6.8 0 0  7 0 0  7.2 0 0  7.4 0 0  7.6 0 0  7.8 0 0  8 0 0  8.199999999999999 0 0  8.4 0 0  8.6 0 0  8.800000000000001 0 0  9 0 0  9.199999999999999 0 0  9.4 0 0  9.6 0 0  9.800000000000001 0 0  10 0 0  0 0.2 0  0.2 0.2 0  0.4 0.2 0  0.6 0.2 0  0.8 0.2 0  1 0.2 0  1.2 0.2 0  1.4 0.2 0  1.6 0.2 0  1.8 0.2 0  2 0.2 0  2.2 0.2 0  2.4 0.2 0  2.6 0.2 0  2.8 0.2 0  3 0.2 0  3.2 0.2 0  3.4 0.2 0  3.6 0.2 0  3.8 0.2 0  4 0.2 0  4.2 0.2 0  4.4 0.2 0  4.6 0.2 0  4.8 0.2 0  5 0.2 0  5.2 0.2 0  5.4 0.2 0  5.6 0.2 0  5.8 0.2 0  6 0.2 0  6.2 0.2 0  6.4 0.2 0  6.6 0.2 0  6.8 0.2 0  7 0.2 0  7.2 0.2 0  7.4 0.2 0  7.6 0.2 0  7.8 0.2 0  8 0.2 0  8.199999999999999 0.2 0  8.4 0.2 0  8.6 0.2 0  8.800000000000001 0.2 0  9 0.2 0  9.199999999999999 0.2 0  9.4 0.2 0  9.6 0.2 0  9.800000000000001 0.2 0  10 0.2 0  0 0.4 0  0.2 0.4 0  0.4 0.4 0  0.6 0.4 0  0.8 0.4 0  1 0.4 0  1.2 0.4 0  1.4 0.4 0  1.6 0.4 0  1.8 0.4 0  2 0.4 0  2.2 0.4 0  2.4 0.4 0  2.6 0.4 0  2.8 0.4 0  3 0.4 0  3.2 0.4 0  3.4 0.4 0  3.6 0.4 0  3.8 0.4 0  4 0.4 0  4.2 0.4 0  4.4 0.4 0  4.6 0.4 0  4.8 0.4 0  5 0.4 0  5.2 0.4 0  5.4 0.4 0  5.6 0.4 0  5.8 0.4 0  6 0.4 0  6.2 0.4 0  6.4 0.4 0  6.6 0.4 0  6.8 0.4 0  7 0.4 0  7.2 0.4 0  7.4 0.4 0  7.6 0.4 0  7.8 0.4 0  8 0.4 0  8.199999999999999 0.4 0  8.4 0.4 0  8.6 0.4 0  8.800000000000001 0.4 0  9 0.4 0  9.199999999999999 0.4 0  9.4 0.4 0  9.6 0.4 0  9.800000000000001 0.4 0  10 0.4 0  0 0.6 0  0.2 0.6 0  0.4 0.6 0  0.6 0.6 0  0.8 0.6 0  1 0.6 0  1.2 0.6 0  1.4 0.6 0  1.6 0.6 0  1.8 0.6 0  2 0.6 0  2.2 0.6 0  2.4 0.6 0  2.6 0.6 0  2.8 0.6 0  3 0.6 0  3.2 0.6 0  3.4 0.6 0  3.6 0.6 0  3.8 0.6 0  4 0.6 0  4.2 0.6 0  4.4 0.6 0  4.6 0.6 0  4.8 0.6 0  5 0.6 0  5.2 0.6 0  5.4 0.6 0  5.6 0.6 0  5.8 0.6 0  6 0.6 0  6.2 0.6 0  6.4 0.6 0  6.6 0.6 0  6.8 0.6 0  7 0.6 0  7.2 0.6 0  7.4 0.6 0  7.6 0.6 0  7.8 0.6 0  8 0.6 0  8.199999999999999 0.6 0  8.4 0.6 0  8.6 0.6 0  8.800000000000001 0.6 0  9 0.6 0  9.199999999999999 0.6 0  9.4 0.6 0  9.6 0.6 0  9.800000000000001 0.6 0  10 0.6 0  0 0.8 0  0.2 0.8 0  0.4 0.8 0  0.6 0.8 0  0.8 0.8 0  1 0.8 0  1.2 0.8 0  1.4 0.8 0  1.6 0.8 0  1.8 0.8 0  2 0.8 0  2.2 0.8 0  2.4 0.8 0  2.6 0.8 0  2.8 0.8 0  3 0.8 0  3.2 0.8 0  3.4 0.8 0  3.6 0.8 0  3.8 0.8 0  4 0.8 0  4.2 0.8 0  4.4 0.8 0  4.6 0.8 0  4.8 0.8 0  5 0.8 0  5.2 0.8 0  5.4 0.8 0  5.6 0.8 0  5.8 0.8 0  6 0.8 0  6.2 0.8 0  6.4 0.8 0  6.6 0.8 0  6.8 0.8 0  7 0.8 0  7.2 0.8 0  7.4 0.8 0  7.6 0.8 0  7.8 0.8 0  8 0.8 0  8.199999999999999 0.8 0  8.4 0.8 0  8.6 0.8 0  8.800000000000001 0.8 0  9 0.8 0  9.199999999999999 0.8 0  9.4 0.8 0  9.6 0.8 0  9.800000000000001 0.8 0  10 0.8 0  0 1 0  0.2 1 0  0.4 1 0  0.6 1 0  0.8 1 0  1 1 0  1.2 1 0  1.4 1 0  1.6 1 0  1.8 1 0  2 1 0  2.2 1 0  2.4 1 0  2.6 1 0  2.8 1 0  3 1 0  3.2 1 0  3.4 1 0  3.6 1 0  3.8 1 0  4 1 0  4.2 1 0  4.4 1 0  4.6 1 0  4.8 1 0  5 1 0  5.2 1 0  5.4 1 0  5.6 1 0  5.8 1 0  6 1 0  6.2 1 0  6.4 1 0  6.6 1 0  6.8 1 0  7 1 0  7.2 1 0  7.4 1 0  7.6 1 0  7.8 1 0  8 1 0  8.199999999999999 1 0  8.4 1 0  8.6 1 0  8.800000000000001 1 0  9 1 0  9.199999999999999 1 0  9.4 1 0  9.6 1 0  9.800000000000001 1 0  10 1 0  0 1.2 0  0.2 1.2 0  0.4 1.2 0  0.6 1.2 0  0.8 1.2 0  1 1.2 0  1.2 1.2 0  1.4 1.2 0  1.6 1.2 0  1.8 1.2 0  2 1.2 0  2.2 1.2 0  2.4 1.2 0  2.6 1.2 0  2.8 1.2 0  3 1.2 0  3.2 1.2 0  3.4 1.2 0  3.6 1.2 0  3.8 1.2 0  4 1.2 0  4.2 1.2 0  4.4 1.2 0  4.6 1.2 0  4.8 1.2 0  5 1.2 0  5.2 1.2 0  5.4 1.2 0  5.6 1.2 0  5.8 1.2 0  6 1.2 0  6.2 1.2 0  6.4 1.2 0  6.6 1.2 0  6.8 1.2 0  7 1.2 0  7.2 1.2 0  7.4 1.2 0  7.6 1.2 0  7.8 1.2 0  8 1.2 0  8.199999999999999 1.2 0  8.4 1.2 0  8.6 1.2 0  8.800000000000001 1.2 0  9 1.2 0  9.199999999999999 1.2 0  9.4 1.2 0  9.6 1.2 0  9.800000000000001 1.2 0  10 1.2 0  0 1.4 0  0.2 1.4 0  0.4 1.4 0  0.6 1.4 0  0.8 1.4 0  1 1.4 0  1.2 1.4 0  1.4 1.4 0  1.6 1.4 0  1.8 1.4 0  2 1.4 0  2.2 1.4 0  2.4 1.4 0  2.6 1.4 0  2.8 1.4 0  3 1.4 0  3.2 1.4 0  3.4 1.4 0  3.6 1.4 0  3.8 1.4 0  4 1.4 0  4.2 1.4 0  4.4 1.4 0  4.6 1.4 0  4.8 1.4 0  5 1.4 0  5.2 1.4 0  5.4 1.4 0  5.6 1.4 0  5.8 1.4 0  6 1.4 0  6.2 1.4 0  6.4 1.4 0  6.6 1.4 0  6.8 1.4 0  7 1.4 0  7.2 1.4 0  7.4 1.4 0  7.6 1.4 0  7.8 1.4 0  8 1.4 0  8.199999999999999 1.4 0  8.4 1.4 0  8.6 1.4 0  8.800000000000001 1.4 0  9 1.4 0  9.199999999999999 1.4 0  9.4 1.4 0  9.6 1.4 0  9.800000000000001 1.4 0  10 1.4 0  0 1.6 0  0.2 1.6 0  0.4 1.6 0  0.6 1.6 0  0.8 1.6 0  1 1.6 0  1.2 1.6 0  1.4 1.6 0  1.6 1.6 0  1.8 1.6 0  2 1.6 0  2.2 1.6 0  2.4 1.6 0  2.6 1.6 0  2.8 1.6 0  3 1.6 0  3.2 1.6 0  3.4 1.6 0  3.6 1.6 0  3.8 1.6 0  4 1.6 0  4.2 1.6 0  4.4 1.6 0  4.6 1.6 0  4.8 1.6 0  5 1.6 0  5.2 1.6 0  5.4 1.6 0  5.6 1.6 0  5.8 1.6 0  6 1.6 0  6.2 1.6 0  6.4 1.6 0  6.6 1.6 0  6.8 1.6 0  7 1.6 0  7.2 1.6 0  7.4 1.6 0  7.6 1.6 0  7.8 1.6 0  8 1.6 0  8.199999999999999 1.6 0  8.4 1.6 0  8.6 1.6 0  8.800000000000001 1.6 0  9 1.6 0  9.199999999999999 1.6 0  9.4 1.6 0  9.6 1.6 0  9.800000000000001 1.6 0  10 1.6 0  0 1.8 0  0.2 1.8 0  0.4 1.8 0  0.6 1.8 0  0.8 1.8 0  1 1.8 0  1.2 1.8 0  1.4 1.8 0  1.6 1.8 0  1.8 1.8 0  2 1.8 0  2.2 1.8 0  2.4 1.8 0  2.6 1.8 0  2.8 1.8 0  3 1.8 0  3.2 1.8 0  3.4 1.8 0  3.6 1.8 0  3.8 1.8 0  4 1.8 0  4.2 1.8 0  4.4 1.8 0  4.6 1.8 0  4.8 1.8 0  5 1.8 0  5.2 1.8 0  5.4 1.8 0  5.6 1.8 0  5.8 1.8 0  6 1.8 0  6.2 1.8 0  6.4 1.8 0  6.6 1.8 0  6.8 1.8 0  7 1.8 0  7.2 1.8 0  7.4 1.8 0  7.6 1.8 0  7.8 1.8 0  8 1.8 0  8.199999999999999 1.8 0  8.4 1.8 0  8.6 1.8 0  8.800000000000001 1.8 0  9 1.8 0  9.199999999999999 1.8 0  9.4 1.8 0  9.6 1.8 0  9.800000000000001 1.8 0  10 1.8 0  0 2 0  0.2 2 0  0.4 2 0  0.6 2 0  0.8 2 0  1 2 0  1.2 2 0  1.4 2 0  1.6 2 0  1.8 2 0  2 2 0  2.2 2 0  2.4 2 0  2.6 2 0  2.8 2 0  3 2 0  3.2 2 0  3.4 2 0  3.6 2 0  3.8 2 0  4 2 0  4.2 2 0  4.4 2 0  4.6 2 0  4.8 2 0  5 2 0  5.2 2 0  5.4 2 0  5.6 2 0  5.8 2 0  6 2 0  6.2 2 0  6.4 2 0  6.6 2 0  6.8 2 0  7 2 0  7.2 2 0  7.4 2 0  7.6 2 0  7.8 2 0  8 2 0  8.199999999999999 2 0  8.4 2 0  8.6 2 0  8.800000000000001 2 0  9 2 0  9.199999999999999 2 0  9.4 2 0  9.6 2 0  9.800000000000001 2 0  10 2 0  0 2.2 0  0.2 2.2 0  0.4 2.2 0  0.6 2.2 0  0.8 2.2 0  1 2.2 0  1.2 2.2 0  1.4 2.2 0  1.6 2.2 0  1.8 2.2 0  2 2.2 0  2.2 2.2 0  2.4 2.2 0  2.6 2.2 0  2.8 2.2 0  3 2.2 0  3.2 2.2 0  3.4 2.2 0  3.6 2.2 0  3.8 2.2 0  4 2.2 0  4.2 2.2 0  4.4 2.2 0  4.6 2.2 0  4.8 2.2 0  5 2.2 0  5.2 2.2 0  5.4 2.2 0  5.6 2.2 0  5.8 2.2 0  6 2.2 0  6.2 2.2 0  6.4 2.2 0  6.6 2.2 0  6.8 2.2 0  7 2.2 0  7.2 2.2 0  7.4 2.2 0  7.6 2.2 0  7.8 2.2 0  8 2.2 0  8.199999999999999 2.2 0  8.4 2.2 0  8.6 2.2 0  8.800000000000001 2.2 0  9 2.2 0  9.199999999999999 2.2 0  9.4 2.2 0  9.6 2.2 0  9.800000000000001 2.2 0  10 2.2 0  0 2.4 0  0.2 2.4 0  0.4 2.4 0  0.6 2.4 0  0.8 2.4 0  1 2.4 0  1.2 2.4 0  1.4 2.4 0  1.6 2.4 0  1.8 2.4 0  2 2.4 0  2.2 2.4 0  2.4 2.4 0  2.6 2.4 0  2.8 2.4 0  3 2.4 0  3.2 2.4 0  3.4 2.4 0  3.6 2.4 0  3.8 2.4 0  4 2.4 0  4.2 2.4 0  4.4 2.4 0  4.6 2.4 0  4.8 2.4 0  5 2.4 0  5.2 2.4 0  5.4 2.4 0  5.6 2.4 0  5.8 2.4 0  6 2.4 0  6.2 2.4 0  6.4 2.4 0  6.6 2.4 0  6.8 2.4 0  7 2.4 0  7.2 2.4 0  7.4 2.4 0  7.6 2.4 0  7.8 2.4 0  8 2.4 0  8.199999999999999 2.4 0  8.4 2.4 0  8.6 2.4 0  8.800000000000001 2.4 0  9 2.4 0  9.199999999999999 2.4 0  9.4 2.4 0  9.6 2.4 0  9.800000000000001 2.4 0  10 2.4 0  0 2.6 0  0.2 2.6 0  0.4 2.6 0  0.6 2.6 0  0.8 2.6 0  1 2.6 0  1.2 2.6 0  1.4 2.6 0  1.6 2.6 0  1.8 2.6 0  2 2.6 0  2.2 2.6 0  2.4 2.6 0  2.6 2.6 0  2.8 2.6 0  3 2.6 0  3.2 2.6 0  3.4 2.6 0  3.6 2.6 0  3.8 2.6 0  4 2.6 0  4.2 2.6 0  4.4 2.6 0  4.6 2.6 0  4.8 2.6 0  5 2.6 0  5.2 2.6 0  5.4 2.6 0  5.6 2.6 0  5.8 2.6 0  6 2.6 0  6.2 2.6 0  6.4 2.6 0  6.6 2.6 0  6.8 2.6 0  7 2.6 0  7.2 2.6 0  7.4 2.6 0  7.6 2.6 0  7.8 2.6 0  8 2.6 0  8.199999999999999 2.6 0  8.4 2.6 0  8.6 2.6 0  8.800000000000001 2.6 0  9 2.6 0  9.199999999999999 2.6 0  9.4 2.6 0  9.6 2.6 0  9.800000000000001 2.6 0  10 2.6 0  0 2.8 0  0.2 2.8 0  0.4 2.8 0  0.6 2.8 0  0.8 2.8 0  1 2.8 0  1.2 2.8 0  1.4 2.8 0  1.6 2.8 0  1.8 2.8 0  2 2.8 0  2.2 2.8 0  2.4 2.8 0  2.6 2.8 0  2.8 2.8 0  3 2.8 0  3.2 2.8 0  3.4 2.8 0  3.6 2.8 0  3.8 2.8 0  4 2.8 0  4.2 2.8 0  4.4 2.8 0  4.6 2.8 0  4.8 2.8 0  5 2.8 0  5.2 2.8 0  5.4 2.8 0  5.6 2.8 0  5.8 2.8 0  6 2.8 0  6.2 2.8 0  6.4 2.8 0  6.6 2.8 0  6.8 2.8 0  7 2.8 0  7.2 2.8 0  7.4 2.8 0  7.6 2.8 0  7.8 2.8 0  8 2.8 0  8.199999999999999 2.8 0  8.4 2.8 0  8.6 2.8 0  8.800000000000001 2.8 0  9 2.8 0  9.199999999999999 2.8 0  9.4 2.8 0  9.6 2.8 0  9.800000000000001 2.8 0  10 2.8 0  0 3 0  0.2 3 0  0.4 3 0  0.6 3 0  0.8 3 0  1 3 0  1.2 3 0  1.4 3 0  1.6 3 0  1.8 3 0  2 3 0  2.2 3 0  2.4 3 0  2.6 3 0  2.8 3 0  3 3 0  3.2 3 0  3.4 3 0  3.6 3 0  3.8 3 0  4 3 0  4.2 3 0  4.4 3 0  4.6 3 0  4.8 3 0  5 3 0  5.2 3 0  5.4 3 0  5.6 3 0  5.8 3 0  6 3 0  6.2 3 0  6.4 3 0  6.6 3 0  6.8 3 0  7 3 0  7.2 3 0  7.4 3 0  7.6 3 0  7.8 3 0  8 3 0  8.199999999999999 3 0  8.4 3 0  8.6 3 0  8.800000000000001 3 0  9 3 0  9.199999999999999 3 0  9.4 3 0  9.6 3 0  9.800000000000001 3 0  10 3 0  0 3.2 0  0.2 3.2 0  0.4 3.2 0  0.6 3.2 0  0.8 3.2 0  1 3.2 0  1.2 3.2 0  1.4 3.2 0  1.6 3.2 0  1.8 3.2 0  2 3.2 0  2.2 3.2 0  2.4 3.2 0  2.6 3.2 0  2.8 3.2 0  3 3.2 0  3.2 3.2 0  3.4 3.2 0  3.6 3.2 0  3.8 3.2 0  4 3.2 0  4.2 3.2 0  4.4 3.2 0  4.6 3.2 0  4.8 3.2 0  5 3.2 0  5.2 3.2 0  5.4 3.2 0  5.6 3.2 0  5.8 3.2 0  6 3.2 0  6.2 3.2 0  6.4 3.2 0  6.6 3.2 0  6.8 3.2 0  7 3.2 0  7.2 3.2 0  7.4 3.2 0  7.6 3.2 0  7.8 3.2 0  8 3.2 0  8.199999999999999 3.2 0  8.4 3.2 0  8.6 3.2 0  8.800000000000001 3.2 0  9 3.2 0  9.199999999999999 3.2 0  9.4 3.2 0  9.6 3.2 0  9.800000000000001 3.2 0  10 3.2 0  0 3.4 0  0.2 3.4 0  0.4 3.4 0  0.6 3.4 0  0.8 3.4 0  1 
[...]
<PointData  Scalars="f_14"> 
<DataArray  type="Float64"  Name="f_14"  format="ascii">9.9504537216550548e-01  9.9467851321977774e-01  9.9376942343417896e-01  9.9257574222853417e-01  9.9128707407413241e-01  9.9002491314936014e-01  9.8885855977827597e-01  9.8782135991827336e-01  9.8692362249333887e-01  9.8616191050915203e-01  9.8552534476199649e-01  9.8499967060305660e-01  9.8456975019829596e-01  9.8422099282276398e-01  9.8394009636930657e-01  9.8371536028799988e-01  9.8353674530324908e-01  9.8339579441494684e-01  9.8328548754214806e-01  9.8320007379480034e-01  9.8313490676725024e-01  9.8308629640974321e-01  9.8305138375901635e-01  9.8302804056196569e-01  9.8301479356052768e-01  9.8301077222072153e-01  9.8301567851800820e-01  9.8302977772007694e-01  9.8305390971228568e-01  9.8308952111247838e-01  9.8313871905482175e-01  9.8320434790349764e-01  9.8329009005273393e-01  9.8340059105389477e-01  9.8354160710606420e-01  9.8372016874516666e-01  9.8394474731697723e-01  9.8422539898671746e-01  9.8457384243361001e-01  9.8500339798120884e-01  9.8552867373585828e-01  9.8616482343443779e-01  9.8692611580664091e-01  9.8782344227397612e-01  9.8886025043666581e-01  9.9002624089114266e-01  9.9128807689356246e-01  9.9257646804507138e-01  9.9376993188558982e-01  9.9467887823991241e-01  9.9504568530478765e-01  9.9467863418682489e-01  9.9453435653542810e-01  9.9395251616662506e-01  9.9304421473973237e-01  9.9198088504716719e-01  9.9089112766124821e-01  9.8985529677588180e-01  9.8891672522166385e-01  9.8809365676715766e-01  9.8738867898896032e-01  9.8679540219490247e-01  9.8630289758090894e-01  9.8589849150469866e-01  9.8556942511560908e-01  9.8530376480208748e-01  9.8509083795060592e-01  9.8492138156177611e-01  9.8478752761134158e-01  9.8468270440445183e-01  9.8460150285835590e-01  9.8453953662560434e-01  9.8449331210283697e-01  9.8446011636169661e-01  9.8443792626844151e-01  9.8442533941699839e-01  9.8442152623956969e-01  9.8442620228009015e-01  9.8443961977947059e-01  9.8446257818430183e-01  9.8449645375853700e-01  9.8454324896963796e-01  9.8460566253727555e-01  9.8468718072110495e-01  9.8479218923344125e-01  9.8492610258264413e-01  9.8509550292847692e-01  9.8530827254690811e-01  9.8557369113879090e-01  9.8590244918036052e-01  9.8630649817478622e-01  9.8679861399380620e-01  9.8739148580943348e-01  9.8809605614136153e-01  9.8891872655818658e-01  9.8985691978033896e-01  9.9089240128222356e-01  9.9198184717666105e-01  9.9304491283982244e-01  9.9395300889522920e-01  9.9453471573290297e-01  9.9467894596619588e-01  9.9376990998818093e-01  9.9395287506301477e-01  9.9398113665369714e-01  9.9366839137717455e-01  9.9310070471367862e-01  9.9240022964472763e-01  9.9166306537594540e-01  9.9095159816368494e-01  9.9030086424857566e-01  9.8972683440166231e-01  9.8923335259717071e-01  9.8881717544205272e-01  9.8847136206576092e-01  9.8818742608817489e-01  9.8795662523184358e-01  9.8777067974289634e-01  9.8762212854188880e-01  9.8750446600073327e-01  9.8741215359938073e-01  9.8734056662482583e-01  9.8728591299964752e-01  9.8724514614907077e-01  9.8721588410827699e-01  9.8719634106761311e-01  9.8718527401455725e-01  9.8718194521125224e-01  9.8718610037048404e-01  9.8719796216441880e-01  9.8721823883020476e-01  9.8724814789124626e-01  9.8728945517403310e-01  9.8734452912847337e-01  9.8741640965511546e-01  9.8750888879626919e-01  9.8762659717340240e-01  9.8777508409508363e-01  9.8796086957607809e-01  9.8819143133141618e-01  9.8847506671738461e-01  9.8882053547185877e-01  9.8923634043057240e-01  9.8972943733834962e-01  9.9030308260396471e-01  9.9095344342526992e-01  9.9166455864482794e-01  9.9240140059631199e-01  9.9310159126863840e-01  9.9366904008718127e-01  9.9398160379016542e-01  9.9395322709860734e-01  9.9377022143564631e-01  9.9257687427263896e-01  9.9304519982780914e-01  9.9366899142920506e-01  9.9399609401747613e-01  9.9399467515819973e-01  9.9375585332959482e-01  9.9338084922685677e-01  9.9294836695127786e-01  9.9251086019660339e-01  9.9209942095219572e-01  9.9173000241589815e-01  9.9140870224144984e-01  9.9113565760146305e-01  9.9090770393262595e-01  9.9072009152318163e-01  9.9056753850644086e-01  9.9044484009161016e-01  9.9034719339079469e-01  9.9027034759935684e-01  9.9021065235616945e-01  9.9016505106891595e-01  9.9013104828575471e-01  9.9010666850480278e-01  9.9009041630944927e-01  9.9008124306166689e-01  9.9007852263271579e-01  9.9008203714314846e-01  9.9009197295729978e-01  9.9010892688547869e-01  9.9013392240622666e-01  9.9016843546403965e-01  9.9021442873421828e-01  9.9027439181818999e-01  9.9035138216073537e-01  9.9044905689411999e-01  9.9057167835888404e-01  9.9072406438387428e-01  9.9091143670225423e-01  9.9113909481729068e-01  9.9141180566740406e-01  9.9173274980029014e-01  9.9210180425778050e-01  9.9251288361112033e-01  9.9295004496798855e-01  9.9338220504857844e-01  9.9375691779406161e-01  9.9399548628760104e-01  9.9399669712539918e-01  9.9366943937310048e-01  9.9304555226790381e-01  9.9257719294026625e-01  9.9128920629406581e-01  9.9198283247017649e-01  9.9310219828583290e-01  9.9399551618194248e-01  9.9452153480817218e-01  9.9472906937889960e-01  9.9471333578747900e-01  9.9456236345357951e-01  9.9434236708382751e-01  9.9409788399467458e-01  9.9385633134929108e-01  9.9363298852116755e-01  9.9343511531664463e-01  9.9326498188218448e-01  9.9312195224399857e-01  9.9300384869975555e-01  9.9290780783442334e-01  9.9283079415678921e-01  9.9276989201330501e-01  9.9272245925263924e-01  9.9268619833736749e-01  9.9265918092351679e-01  9.9263984848310982e-01  9.9262700261837056e-01  9.9261979295515590e-01  9.9261770690493523e-01  9.9262056342574978e-01  9.9262851166659860e-01  9.9264203464556400e-01  9.9266195755532061e-01  9.9268945959425303e-01  9.9272608704546972e-01  9.9277376325507993e-01  9.9283478765292765e-01  9.9291181027480913e-01  9.9300775937136554e-01  9.9312568626649922e-01  9.9326847194725776e-01  9.9343831206286415e-01  9.9363585978665003e-01  9.9385886061031659e-01  9.9410006832349540e-01  9.9434421495095349e-01  9.9456389266713274e-01  9.9471457180888068e-01  9.9473004417515698e-01  9.9452228627696782e-01  9.9399608795640793e-01  9.9310263942441013e-01  9.9198319571007154e-01  9.9128954162771132e-01  9.9002850936234377e-01  9.9089447709167133e-01  9.9240300003316173e-01  9.9375784622963703e-01  9.9473014284351280e-01  9.9532752627251186e-01  9.9563341143607098e-01  9.9573905840394783e-01  9.9571989325189503e-01  9.9563090447633829e-01  9.9550910554008476e-01  9.9537781318626650e-01  9.9525070552121653e-01  9.9513504493889526e-01  9.9503402230093507e-01  9.9494837081847454e-01  9.9487743308197440e-01  9.9481984274751700e-01  9.9477394596141777e-01  9.9473805296540863e-01  9.9471058242335220e-01  9.9469014026985902e-01  9.9467556018677672e-01  9.9466592274956678e-01  9.9466056358402910e-01  9.9465907652776142e-01  9.9466131503792710e-01  9.9466739335371779e-01  9.9467768776125820e-01  9.9469283734490477e-01  9.9471374248678091e-01  9.9474155771398931e-01  9.9477767283156848e-01  9.9482367202974253e-01  9.9488125403794492e-01  9.9495208639487587e-01  9.9503755223772827e-01  9.9513832726844231e-01  9.9525369662213392e-01  9.9538048667563006e-01  9.9551145035487731e-01  9.9563292251435520e-01  9.9572159692347806e-01  9.9574046839898045e-01  9.9563455494028130e-01  9.9532843576792140e-01  9.9473085547778106e-01  9.9375840349600186e-01  9.9240344714868767e-01  9.9089486077414468e-01  9.9002886958234804e-01  9.8886422287626374e-01  9.8986062156524868e-01  9.9166761725880226e-01  9.9338441016972190e-01  9.9471580135371873e-01  9.9563470294260403e-01  9.9621153223041081e-01  9.9653709119950351e-01  9.9669229218493760e-01  9.9673960243956650e-01  9.9672347684517992e-01  9.9667377106283506e-01  9.9660955377462357e-01  9.9654237310949145e-01  9.9647875536409902e-01  9.9642199723416303e-01  9.9637339732966690e-01  9.9633307569093987e-01  9.9630050500807277e-01  9.9627484713886783e-01  9.9625516187142393e-01  9.9624053397124335e-01  9.9623014918786501e-01  9.9622333907241456e-01  9.9621960706900259e-01  9.9621864341989264e-01  9.9622033318594494e-01  9.9622475951982115e-01  9.9623220275973734e-01  9.9624313453813640e-01  9.9625820455339764e-01  9.9627821553707430e-01  9.9630407878353533e-01  9.9633673777603926e-01  9.9637704014784212e-01  9.9642552747086788e-01  9.9648209704595458e-01  9.9654546897018570e-01  9.9661236507982554e-01  9.9667627620783117e-01  9.9672566911845739e-01  9.9674148736687862e-01  9.9669388484316346e-01  9.9653841383083097e-01  9.9621261240211800e-01  9.9563557238155143e-01  9.9471649541399931e-01  9.9338496762710682e-01  9.9166807972576343e-01  9.8986103104686907e-01  9.8886461178907137e-01  9.8782985875836793e-01  9.8892475912184741e-01  9.9095858474761567e-01  9.9295404643621288e-01  9.9456665878341588e-01  9.9574196206535481e-01  9.9653858500239700e-01  9.9704520618425196e-01  9.9734572170729952e-01  9.9750769750259294e-01  9.9758109368770631e-01  9.9760083937423960e-01  9.9759032206409315e-01  9.9756460255904122e-01  9.9753298606308960e-01  9.9750093026766973e-01  9.9747139659193729e-01  9.9744577639987475e-01  9.9742451061799720e-01  9.9740749643660664e-01  9.9739435021633405e-01  9.9738457532420066e-01  9.9737766810477291e-01  9.9737318400986830e-01  9.9737077815154296e-01  9.9737022928241670e-01  9.9737145263556026e-01  9.9737450451824039e-01  9.9737957954672418e-01  9.9738699954927523e-01  9.9739719112326231e-01  9.9741064625432097e-01  9.9742785682602242e-01  9.9744920863573394e-01  9.9747481287219464e-01  9.9750424194672793e-01  9.9753612115102586e-01  9.9756750726869081e-01  9.9759296070169434e-01  9.9760319288140209e-01  9.9758315726114710e-01  9.9750947776022025e-01  9.9734723384828206e-01  9.9704647152481185e-01  9.9653962917051642e-01  9.9574281400446185e-01  9.9456735052088718e-01  9.9295461327280088e-01  9.9095906503360953e-01  9.8892519187568761e-01  9.8783027184402927e-01  9.8693591673180103e-01  9.8810531845647243e-01  9.9031111157471952e-01  9.9251936795827234e-01  9.9434907553662066e-01  9.9572486196194232e-01  9.9669560048358330e-01  9.9734740321211535e-01  9.9776566445711090e-01  9.9802134776366613e-01  9.9816838133209429e-01  9.9824551616935309e-01  9.9827949256203852e-01  9.9828815860043041e-01  9.9828306067002692e-01  9.9827142068179731e-01  9.9825757042683572e-01  9.9824395746762229e-01  9.9823183381232239e-01  9.9822171907473101e-01  9.9821370760466399e-01  9.9820766955937457e-01  9.9820338062129399e-01  9.9820060395070809e-01  9.9819914025400225e-01  9.9819885661403274e-01  9.9819970105544609e-01  9.9820170694440924e-01  9.9820498872156027e-01  9.9820972784392981e-01  9.9821614500679656e-01  9.9822445154257866e-01  9.9823476897504460e-01  9.9824700039467951e-01  9.9826062972109997e-01  9.9827441402963391e-01  9.9828591909734721e-01  9.9829082898134147e-01  9.9828193828536538e-01  9.9824771618748875e-01  9.9817032803574901e-01  9.9802304422883581e-01  9.9776712161336611e-01  9.9734863741342616e-01  9.9669663184822033e-01  9.9572571369130658e-01  9.9434977419487447e-01  9.9251994434056545e-01  9.9031160117893646e-01  9.8810575945586920e-01  9.8693633635847156e-01  9.8617917394280163e-01  9.8740509500631646e-01  9.8974136375719768e-01  9.9211164830069665e-01  9.9410775756893177e-01  9.9563854754963121e-01  9.9674519008502249e-01  9.9751137920726174e-01  9.9802320034117120e-01  9.9835387286712207e-01  9.9856015338881976e-01  9.9868362343072770e-01  9.9875357244962326e-01  9.9879000934382955e-01  9.9880624377074623e-01  9.9881090177153353e-01  9.9880941671449541e-01  9.9880509426452058e-01  9.9879985502190038e-01  9.9879474327922468e-01  9.9879027022524491e-01  9.9878664136587181e-01  9.9878390323050525e-01  9.9878203390930975e-01  9.9878099499088913e-01  9.9878075793562027e-01  9.9878131458383457e-01  9.9878267830378209e-01  9.9878487863922771e-01  9.9878794817924665e-01  9.9879189606406826e-01  9.9879665835074249e-01  9.9880201126340784e-01  9.9880742843145576e-01  9.9881185640130576e-01  9.9881337271116277e-01  9.9880867672762652e-01  9.9879234534701467e-01  9.9875576575382075e-01  9.9868564221014577e-01  9.9856197861874496e-01  9.9835549608724183e-01  9.9802462105023881e-01  9.9751260256781082e-01  9.9674622547088609e-01  9.9563940826974606e-01  9.9410846182051082e-01  9.9211222097537244e-01  9.8974183796102344e-01  9.8740551077890470e-01  9.8617956308713650e-01  9.8554898708264438e-01  9.8681792828308834e-01  9.8925340127520345e-01  9.9174704269945591e-01  9.9387031121850855e-01  9.9552020954824749e-01  9.9673197386069323e-01  9.9758724579469205e-01  9.9817239252573620e-01  9.9856214411728250e-01  9.9881526884219607e-01  9.9897542435705911e-01  9.9907380933399825e-01  9.9913207587662356e-01  9.9916488984764895e-01  9.9918196714381657e-01  9.9918960436696247e-01  9.9919178957875177e-01  9.9919098955951446e-01  9.9918869785586373e-01  9.9918580916102517e-01  9.9918286769279008e-01  9.9918022332502410e-01  9.9917812011492391e-01  9.9917673693682996e-01  9.9917619754743514e-01  9.9917656541577171e-01  9.9917783516743275e-01  9.9917992669424260e-01  9.9918268045987901e-01  9.9918584486876516e-01  9.9918904030144873e-01  9.9919168004221259e-01  9.9919282487223438e-01  9.9919094356585791e-01  9.9918354374881257e-01  9.9916662518576105e-01  9.9913389080408155e-01  9.9907563251491127e-01  9.9897719671002327e-01  9.9881694468863713e-01  9.9856369006957946e-01  9.9817378529112843e-01  9.9758846997082096e-01  9.9673302057495738e-01  9.9552107650663502e-01  9.9387100436300369e-01  9.9174757914335865e-01  9.8925381225092501e-01  9.8681825915904431e-01  9.8554928120228524e-01  9.8503135687725096e-01  9.8633313781865672e-01  9.8884421541717071e-01  9.9143186929803861e-01  9.9365222344952309e-01  9.9539336025948733e-01  9.9668599028263771e-01  9.9761009930850975e-01  9.9825213852489370e-01  9.9868786159111722e-01  9.9897746723689185e-01  9.9916612253398118e-01  9.9928643306859621e-01  9.9936127157143306e-01  9.9940631528496859e-01  9.9943209463752403e-01  9.9944555534259050e-01  9.9945120955800226e-01  9.9945196599893438e-01  9.9944971808282002e-01  9.9944575042679928e-01  9.9944100592883689e-01  9.9943624259218200e-01  9.9943210294556639e-01  9.9942911877323481e-01  9.9942767697947599e-01  9.9942797429381314e-01  9.9942998500579838e-01  9.9943345538735939e-01  9.9943792302579426e-01  9.9944274377794495e-01  9.9944709823840516e-01  9.9944994545256616e-01  9.9944989228252734e-01  9.9944494801092854e-01  9.9943213095438621e-01  9.9940688446621617e-01  9.9936224412476449e-01  9.9928768009497559e-01  9.9916752756547200e-01  9.9897893154324269e-01  9.9868930484177976e-01  9.9825349690313026e-01  9.9761132294321231e-01  9.9668704144296161e-01  9.9539421328622013e-01  9.9365286688137844e-01  9.9143230998706111e-01  9.8884448330297137e-01  9.8633328801530762e-01  9.8503145355088284e-01  9.8461141685166564e-01  9.8593831406605026e-01  9.8850711556100457e-01  9.9116650136795958e-01  9.9346097736977268e-01  9.9527188881689133e-01  9.9662650508874095e-01  9.9760350555325761e-01  9.9828932971333262e-01  9.9876042611553117e-01  9.9907800241815248e-01  9.9928830308206151e-01  9.9942493946530220e-01  9.9951165065085013e-01  9.9956482064791474e-01  9.9959553774540000e-01  9.9961118749493216e-01  9.9961664814151963e-01  9.9961517280321766e-01  9.9960903068406848e-01  9.9959995808582991e-01  9.9958944933971861e-01  9.9957890485084866e-01  9.9956965227998662e-01  9.9956286739184297e-01  9.9955943764495347e-01  9.9955982393142928e-01  9.9956397359063598e-01  9.9957131667113019e-01  9.9958084307905770e-01  9.9959122397526845e-01  9.9960091973867904e-01  9.9960821443294734e-01  9.9961112838627231e-01  9.9960717549394573e-01  9.9959293984532316e-01  9.9956344203191527e-01  9.9951125008343344e-01  9.9942526987172509e-01  9.9928913661250296e-01  9.9907914234717476e-01  9.9876170950852472e-01  9.9829062490076426e-01  9.9760470779933752e-01  9.9662753294939710e-01  9.9527268282790460e-01  9.9346150192716298e-01  9.9116674981650565e-01  9.8850711718418138e-01  9.8593813930134455e-01  9.8461116288380879e-01  9.8427485847737872e-01  9.8562097305490604e-01  9.8823387653067296e-01  9.9094802182155040e-01  9.9329907816212848e-01  9.9516328011954147e-01  9.9656527322039035e-01  9.9758270889917122e-01  9.9830196128464255e-01  9.9879993701929337e-01  9.9913853190313007e-01  9.9936472230684492e-01  9.9951278589244941e-01  9.9960700732939622e-01  9.9966417910880867e-01  9.9969567393296821e-01  9.9970907552313104e-01  9.9970943421056779e-01  9.9970022790256974e-01  9.9968409178740558e-01  9.9966335023529340e-01  9.9964035517136784e-01  9.9961761907092883e-01  9.9959773793718176e-01  9.9958313301100765e-01  9.9957568888881776e-01  9.9957640589085961e-01  9.9958518846773381e-01  9.9960084630319546e-01  9.9962130453409659e-01  9.9964393962871423e-01  9.9966591329841559e-01  9.9968438189276154e-01  9.9969649944836125e-01  9.9969918070705088e-01  9.9968862140727932e-01  9.9965957688363105e-01  9.9960438086377612e-01  9.9951165741634151e-01  9.9936465758270043e-01  9.9913916094088018e-01  9.9880095736140528e-01  9.9830313184012454e-01  9.9758384050455462e-01  9.9656622016558905e-01  9.9516393526820912e-01  9.9329937306568761e-01  9.9094793213834131e-01  9.8823343155820365e-01  9.8562026548893655e-01  9.8427403427139348e-01  9.8400866557944344e-01  9.8536945995142178e-01  9.8801602175065317e-01  9.9077193377191375e-01  9.9316613088013772e-01  9.9507095324690586e-01  9.9650903120477174e-01  9.9755719547509925e-01  9.9830171145149782e-01  9.9881975551489699e-01  9.9917364687388599e-01  9.9941079249043774e-01  9.9956581746986328e-01  9.9966322181068334e-01  9.9971986574031724e-01  9.9974705858242741e-01  9.9975224140912000e-01  9.9974033508783033e-01  9.9971483582629550e-01  9.9967871141422260e-01  9.9963510156115309e-01  9.9958777322067704e-01  9.9954125079546574e-01  9.9950055861885179e-01  9.9947059389735382e-01  9.9945527474203322e-01  9.9945672233452254e-01  9.9947476425414827e-01  9.9950694661633721e-01  9.9954904880625539e-01  9.9959590173300295e-01  9.9964221398804820e-01  9.9968314222228494e-01  9.9971445984715623e-01  9.9973230543414893e-01  9.9973257043730279e-01  9.9970999844717223e-01  9.9965703241006643e-01  9.9956239276055547e-01  9.9940932778792990e-01  9.9917347510447863e-01  9.9882034538559383e-01  9.9830265023377507e-01  9.9755816738714276e-01  9.9650979827634201e-01  9.9507134255757157e-01  9.9316603010813220e-01  9.9077129561774879e-01  9.8801487619709205e-01  9.8536793041882997e-01  9.8400696675221089e-01  9.8380141807265753e-01  9.8517337586088394e-01  9.8784553317861201e-01  9.9063320547250300e-01  9.9306019703388315e-01  9.9499586743952051e-01  9.9646128077836404e-01  9.9753259080342138e-01  9.9829590422673509e-01  9.9882849779546734e-01  9.9919287027451642e-01  9.9943656307496909e-01  9.9959420579707592e-01  9.9969011905233363e-01  9.9974077632829972e-01  9.9975690802851391e-01  9.9974525424636407e-01  9.9971005867982132e-01  9.9965440187435384e-01  9.9958142200490685e-01  9.9949537934738264e-01  9.9940240980991857e-01  9.9931073141798099e-01  9.9923008522054879e-01  9.9917036519318303e-01  9.9913970224663939e-01  9.9914258133752387e-01  9.9917868322307402e-01  9.9924292077979615e-01  9.9932665783743979e-01  9.9941961900276322e-01  9.9951178412710251e-01  9.9959468423427089e-01  9.9966183982865120e-01  9.9970839728686844e-01  9.9973018844710615e-01  9.9972244693967560e-01  9.9967832399060375e-01  9.9958723175266706e-01  9.9943295754893124e-01  9.9919146971195638e-01  9.9882840487122693e-01  9.9829644340160528e-01  9.9753326072833715e-01  9.9646171392214455e-01  9.9499580199680904e-01  9.9305946319286864e-01  9.9063172651703424e-01  9.8784334042474897e-01  9.8517063359537671e-01  9.8379843453083171e-01  9.8364334040975865e-01  9.8502371544555256e-01  9.8771519694005960e-01  9.9052686943656709e-01  9.9297864067456620e-01  9.9493757901415947e-01  9.9642350948460190e-01  9.9751199814939118e-01  9.9828892658793489e-01  9.9883149984161423e-01  9.9920214326384627e-01  9.9944820296771153e-01  9.9960389410621731e-01  9.9969282564029038e