<?xml version="1.0"?>
<VTKFile type="UnstructuredGrid"  version="0.1"  >
<UnstructuredGrid>
<Piece  NumberOfPoints="5101" NumberOfCells="10000">
<Points>
<DataArray  type="Float64"  NumberOfComponents="3"  format="ascii">0 0 0  0.2 0 0  0.4 0 0  0.6 0 0  0.8 0 0  1 0 0  1.2 0 0  1.4 0 0  1.6 0 0  1.8 0 0  2 0 0  2.2 0 0  2.4 0 0  2.6 0 0  2.8 0 0  3 0 0  3.2 0 0  3.4 0 0  3.6 0 0  3.8 0 0  4 0 0  4.2 0 0  4.4 0 0  4.6 0 0  4.8 0 0  5 0 0  5.2 0 0  5.4 0 0  5.6 0 0  5.8 0 0  6 0 0  6.2 0 0  6.4 0 0  6.6 0 0  6.8 0 0  7 0 0  7.2 0 0  7.4 0 0  7.6 0 0  7.8 0 0  8 0 0  8.199999999999999 0 0  8.4 0 0  8.6 0 0  8.800000000000001 0 0  9 0 0  9.199999999999999 0 0  9.4 0 0  9.6 0 0  9.800000000000001 0 0  10 0 0  0 0.2 0  0.2 0.2 0  0.4 0.2 0  0.6 0.2 0  0.8 0.2 0  1 0.2 0  1.2 0.2 0  1.4 0.2 0  1.6 0.2 0  1.8 0.2 0  2 0.2 0  2.2 0.2 0  2.4 0.2 0  2.6 0.2 0  2.8 0.2 0  3 0.2 0  3.2 0.2 0  3.4 0.2 0  3.6 0.2 0  3.8 0.2 0  4 0.2 0  4.2 0.2 0  4.4 0.2 0  4.6 0.2 0  4.8 0.2 0  5 0.2 0  5.2 0.2 0  5.4 0.2 0  5.6 0.2 0  5.8 0.2 0  6 0.2 0  6.2 0.2 0  6.4 0.2 0  6.6 0.2 0  6.8 0.2 0  7 0.2 0  7.2 0.2 0  7.4 0.2 0  7.6 0.2 0  7.8 0.2 0  8 0.2 0  8.199999999999999 0.2 0  8.4 0.2 0  8.6 0.2 0  8.800000000000001 0.2 0  9 0.2 0  9.199999999999999 0.2 0  9.4 0.2 0  9.6 0.2 0  9.800000000000001 0.2 0  10 0.2 0  0 0.4 0  0.2 0.4 0  0.4 0.4 0  0.6 0.4 0  0.8 0.4 0  1 0.4 0  1.2 0.4 0  1.4 0.4 0  1.6 0.4 0  1.8 0.4 0  2 0.4 0  2.2 0.4 0  2.4 0.4 0  2.6 0.4 0  2.8 0.4 0  3 0.4 0  3.2 0.4 0  3.4 0.4 0  3.6 0.4 0  3.8 0.4 0  4 0.4 0  4.2 0.4 0  4.4 0.4 0  4.6 0.4 0  4.8 0.4 0  5 0.4 0  5.2 0.4 0  5.4 0.4 0  5.6 0.4 0  5.8 0.4 0  6 0.4 0  6.2 0.4 0  6.4 0.4 0  6.6 0.4 0  6.8 0.4 0  7 0.4 0  7.2 0.4 0  7.4 0.4 0  7.6 0.4 0  7.8 0.4 0  8 0.4 0  8.199999999999999 0.4 0  8.4 0.4 0  8.6 0.4 0  8.800000000000001 0.4 0  9 0.4 0  9.199999999999999 0.4 0  9.4 0.4 0  9.6 0.4 0  9.800000000000001 0.4 0  10 0.4 0  0 0.6 0  0.2 0.6 0  0.4 0.6 0  0.6 0.6 0  0.8 0.6 0  1 0.6 0  1.2 0.6 0  1.4 0.6 0  1.6 0.6 0  1.8 0.6 0  2 0.6 0  2.2 0.6 0  2.4 0.6 0  2.6 0.6 0  2.8 0.6 0  3 0.6 0  3.2 0.6 0  3.4 0.6 0  3.6 0.6 0  3.8 0.6 0  4 0.6 0  4.2 0.6 0  4.4 0.6 0  4.6 0.6 0  4.8 0.6 0  5 0.6 0  5.2 0.6 0  5.4 0.6 0  5.6 0.6 0  5.8 0.6 0  6 0.6 0  6.2 0.6 0  6.4 0.6 0  6.6 0.6 0  6.8 0.6 0  7 0.6 0  7.2 0.6 0  7.4 0.6 0  7.6 0.6 0  7.8 0.6 0  8 0.6 0  8.199999999999999 0.6 0  8.4 0.6 0  8.6 0.6 0  8.800000000000001 0.6 0  9 0.6 0  9.199999999999999 0.6 0  9.4 0.6 0  9.6 0.6 0  9.800000000000001 0.6 0  10 0.6 0  0 0.8 0  0.2 0.8 0  0.4 0.8 0  0.6 0.8 0  0.8 0.8 0  1 0.8 0  1.2 0.8 0  1.4 0.8 0  1.6 0.8 0  1.8 0.8 0  2 0.8 0  2.2 0.8 0  2.4 0.8 0  2.6 0.8 0  2.8 0.8 0  3 0.8 0  3.2 0.8 0  3.4 0.8 0  3.6 0.8 0  3.8 0.8 0  4 0.8 0  4.2 0.8 0  4.4 0.8 0  4.6 0.8 0  4.8 0.8 0  5 0.8 0  5.2 0.8 0  5.4 0.8 0  5.6 0.8 0  5.8 0.8 0  6 0.8 0  6.2 0.8 0  6.4 0.8 0  6.6 0.8 0  6.8 0.8 0  7 0.8 0  7.2 0.8 0  7.4 0.8 0  7.6 0.8 0  7.8 0.8 0  8 0.8 0  8.199999999999999 0.8 0  8.4 0.8 0  8.6 0.8 0  8.800000000000001 0.8 0  9 0.8 0  9.199999999999999 0.8 0  9.4 0.8 0  9.6 0.8 0  9.800000000000001 0.8 0  10 0.8 0  0 1 0  0.2 1 0  0.4 1 0  0.6 1 0  0.8 1 0  1 1 0  1.2 1 0  1.4 1 0  1.6 1 0  1.8 1 0  2 1 0  2.2 1 0  2.4 1 0  2.6 1 0  2.8 1 0  3 1 0  3.2 1 0  3.4 1 0  3.6 1 0  3.8 1 0  4 1 0  4.2 1 0  4.4 1 0  4.6 1 0  4.8 1 0  5 1 0  5.2 1 0  5.4 1 0  5.6 1 0  5.8 1 0  6 1 0  6.2 1 0  6.4 1 0  6.6 1 0  6.8 1 0  7 1 0  7.2 1 0  7.4 1 0  7.6 1 0  7.8 1 0  8 1 0  8.199999999999999 1 0  8.4 1 0  8.6 1 0  8.800000000000001 1 0  9 1 0  9.199999999999999 1 0  9.4 1 0  9.6 1 0  9.800000000000001 1 0  10 1 0  0 1.2 0  0.2 1.2 0  0.4 1.2 0  0.6 1.2 0  0.8 1.2 0  1 1.2 0  1.2 1.2 0  1.4 1.2 0  1.6 1.2 0  1.8 1.2 0  2 1.2 0  2.2 1.2 0  2.4 1.2 0  2.6 1.2 0  2.8 1.2 0  3 1.2 0  3.2 1.2 0  3.4 1.2 0  3.6 1.2 0  3.8 1.2 0  4 1.2 0  4.2 1.2 0  4.4 1.2 0  4.6 1.2 0  4.8 1.2 0  5 1.2 0  5.2 1.2 0  5.4 1.2 0  5.6 1.2 0  5.8 1.2 0  6 1.2 0  6.2 1.2 0  6.4 1.2 0  6.6 1.2 0  6.8 1.2 0  7 1.2 0  7.2 1.2 0  7.4 1.2 0  7.6 1.2 0  7.8 1.2 0  8 1.2 0  8.199999999999999 1.2 0  8.4 1.2 0  8.6 1.2 0  8.800000000000001 1.2 0  9 1.2 0  9.199999999999999 1.2 0  9.4 1.2 0  9.6 1.2 0  9.800000000000001 1.2 0  10 1.2 0  0 1.4 0  0.2 1.4 0  0.4 1.4 0  0.6 1.4 0  0.8 1.4 0  1 1.4 0  1.2 1.4 0  1.4 1.4 0  1.6 1.4 0  1.8 1.4 0  2 1.4 0  2.2 1.4 0  2.4 1.4 0  2.6 1.4 0  2.8 1.4 0  3 1.4 0  3.2 1.4 0  3.4 1.4 0  3.6 1.4 0  3.8 1.4 0  4 1.4 0  4.2 1.4 0  4.4 1.4 0  4.6 1.4 0  4.8 1.4 0  5 1.4 0  5.2 1.4 0  5.4 1.4 0  5.6 1.4 0  5.8 1.4 0  6 1.4 0  6.2 1.4 0  6.4 1.4 0  6.6 1.4 0  6.8 1.4 0  7 1.4 0  7.2 1.4 0  7.4 1.4 0  7.6 1.4 0  7.8 1.4 0  8 1.4 0  8.199999999999999 1.4 0  8.4 1.4 0  8.6 1.4 0  8.800000000000001 1.4 0  9 1.4 0  9.199999999999999 1.4 0  9.4 1.4 0  9.6 1.4 0  9.800000000000001 1.4 0  10 1.4 0  0 1.6 0  0.2 1.6 0  0.4 1.6 0  0.6 1.6 0  0.8 1.6 0  1 1.6 0  1.2 1.6 0  1.4 1.6 0  1.6 1.6 0  1.8 1.6 0  2 1.6 0  2.2 1.6 0  2.4 1.6 0  2.6 1.6 0  2.8 1.6 0  3 1.6 0  3.2 1.6 0  3.4 1.6 0  3.6 1.6 0  3.8 1.6 0  4 1.6 0  4.2 1.6 0  4.4 1.6 0  4.6 1.6 0  4.8 1.6 0  5 1.6 0  5.2 1.6 0  5.4 1.6 0  5.6 1.6 0  5.8 1.6 0  6 1.6 0  6.2 1.6 0  6.4 1.6 0  6.6 1.6 0  6.8 1.6 0  7 1.6 0  7.2 1.6 0  7.4 1.6 0  7.6 1.6 0  7.8 1.6 0  8 1.6 0  8.199999999999999 1.6 0  8.4 1.6 0  8.6 1.6 0  8.800000000000001 1.6 0  9 1.6 0  9.199999999999999 1.6 0  9.4 1.6 0  9.6 1.6 0  9.800000000000001 1.6 0  10 1.6 0  0 1.8 0  0.2 1.8 0  0.4 1.8 0  0.6 1.8 0  0.8 1.8 0  1 1.8 0  1.2 1.8 0  1.4 1.8 0  1.6 1.8 0  1.8 1.8 0  2 1.8 0  2.2 1.8 0  2.4 1.8 0  2.6 1.8 0  2.8 1.8 0  3 1.8 0  3.2 1.8 0  3.4 1.8 0  3.6 1.8 0  3.8 1.8 0  4 1.8 0  4.2 1.8 0  4.4 1.8 0  4.6 1.8 0  4.8 1.8 0  5 1.8 0  5.2 1.8 0  5.4 1.8 0  5.6 1.8 0  5.8 1.8 0  6 1.8 0  6.2 1.8 0  6.4 1.8 0  6.6 1.8 0  6.8 1.8 0  7 1.8 0  7.2 1.8 0  7.4 1.8 0  7.6 1.8 0  7.8 1.8 0  8 1.8 0  8.199999999999999 1.8 0  8.4 1.8 0  8.6 1.8 0  8.800000000000001 1.8 0  9 1.8 0  9.199999999999999 1.8 0  9.4 1.8 0  9.6 1.8 0  9.800000000000001 1.8 0  10 1.8 0  0 2 0  0.2 2 0  0.4 2 0  0.6 2 0  0.8 2 0  1 2 0  1.2 2 0  1.4 2 0  1.6 2 0  1.8 2 0  2 2 0  2.2 2 0  2.4 2 0  2.6 2 0  2.8 2 0  3 2 0  3.2 2 0  3.4 2 0  3.6 2 0  3.8 2 0  4 2 0  4.2 2 0  4.4 2 0  4.6 2 0  4.8 2 0  5 2 0  5.2 2 0  5.4 2 0  5.6 2 0  5.8 2 0  6 2 0  6.2 2 0  6.4 2 0  6.6 2 0  6.8 2 0  7 2 0  7.2 2 0  7.4 2 0  7.6 2 0  7.8 2 0  8 2 0  8.199999999999999 2 0  8.4 2 0  8.6 2 0  8.800000000000001 2 0  9 2 0  9.199999999999999 2 0  9.4 2 0  9.6 2 0  9.800000000000001 2 0  10 2 0  0 2.2 0  0.2 2.2 0  0.4 2.2 0  0.6 2.2 0  0.8 2.2 0  1 2.2 0  1.2 2.2 0  1.4 2.2 0  1.6 2.2 0  1.8 2.2 0  2 2.2 0  2.2 2.2 0  2.4 2.2 0  2.6 2.2 0  2.8 2.2 0  3 2.2 0  3.2 2.2 0  3.4 2.2 0  3.6 2.2 0  3.8 2.2 0  4 2.2 0  4.2 2.2 0  4.4 2.2 0  4.6 2.2 0  4.8 2.2 0  5 2.2 0  5.2 2.2 0  5.4 2.2 0  5.6 2.2 0  5.8 2.2 0  6 2.2 0  6.2 2.2 0  6.4 2.2 0  6.6 2.2 0  6.8 2.2 0  7 2.2 0  7.2 2.2 0  7.4 2.2 0  7.6 2.2 0  7.8 2.2 0  8 2.2 0  8.199999999999999 2.2 0  8.4 2.2 0  8.6 2.2 0  8.800000000000001 2.2 0  9 2.2 0  9.199999999999999 2.2 0  9.4 2.2 0  9.6 2.2 0  9.800000000000001 2.2 0  10 2.2 0  0 2.4 0  0.2 2.4 0  0.4 2.4 0  0.6 2.4 0  0.8 2.4 0  1 2.4 0  1.2 2.4 0  1.4 2.4 0  1.6 2.4 0  1.8 2.4 0  2 2.4 0  2.2 2.4 0  2.4 2.4 0  2.6 2.4 0  2.8 2.4 0  3 2.4 0  3.2 2.4 0  3.4 2.4 0  3.6 2.4 0  3.8 2.4 0  4 2.4 0  4.2 2.4 0  4.4 2.4 0  4.6 2.4 0  4.8 2.4 0  5 2.4 0  5.2 2.4 0  5.4 2.4 0  5.6 2.4 0  5.8 2.4 0  6 2.4 0  6.2 2.4 0  6.4 2.4 0  6.6 2.4 0  6.8 2.4 0  7 2.4 0  7.2 2.4 0  7.4 2.4 0  7.6 2.4 0  7.8 2.4 0  8 2.4 0  8.199999999999999 2.4 0  8.4 2.4 0  8.6 2.4 0  8.800000000000001 2.4 0  9 2.4 0  9.199999999999999 2.4 0  9.4 2.4 0  9.6 2.4 0  9.800000000000001 2.4 0  10 2.4 0  0 2.6 0  0.2 2.6 0  0.4 2.6 0  0.6 2.6 0  0.8 2.6 0  1 2.6 0  1.2 2.6 0  1.4 2.6 0  1.6 2.6 0  1.8 2.6 0  2 2.6 0  2.2 2.6 0  2.4 2.6 0  2.6 2.6 0  2.8 2.6 0  3 2.6 0  3.2 2.6 0  3.4 2.6 0  3.6 2.6 0  3.8 2.6 0  4 2.6 0  4.2 2.6 0  4.4 2.6 0  4.6 2.6 0  4.8 2.6 0  5 2.6 0  5.2 2.6 0  5.4 2.6 0  5.6 2.6 0  5.8 2.6 0  6 2.6 0  6.2 2.6 0  6.4 2.6 0  6.6 2.6 0  6.8 2.6 0  7 2.6 0  7.2 2.6 0  7.4 2.6 0  7.6 2.6 0  7.8 2.6 0  8 2.6 0  8.199999999999999 2.6 0  8.4 2.6 0  8.6 2.6 0  8.800000000000001 2.6 0  9 2.6 0  9.199999999999999 2.6 0  9.4 2.6 0  9.6 2.6 0  9.800000000000001 2.6 0  10 2.6 0  0 2.8 0  0.2 2.8 0  0.4 2.8 0  0.6 2.8 0  0.8 2.8 0  1 2.8 0  1.2 2.8 0  1.4 2.8 0  1.6 2.8 0  1.8 2.8 0  2 2.8 0  2.2 2.8 0  2.4 2.8 0  2.6 2.8 0  2.8 2.8 0  3 2.8 0  3.2 2.8 0  3.4 2.8 0  3.6 2.8 0  3.8 2.8 0  4 2.8 0  4.2 2.8 0  4.4 2.8 0  4.6 2.8 0  4.8 2.8 0  5 2.8 0  5.2 2.8 0  5.4 2.8 0  5.6 2.8 0  5.8 2.8 0  6 2.8 0  6.2 2.8 0  6.4 2.8 0  6.6 2.8 0  6.8 2.8 0  7 2.8 0  7.2 2.8 0  7.4 2.8 0  7.6 2.8 0  7.8 2.8 0  8 2.8 0  8.199999999999999 2.8 0  8.4 2.8 0  8.6 2.8 0  8.800000000000001 2.8 0  9 2.8 0  9.199999999999999 2.8 0  9.4 2.8 0  9.6 2.8 0  9.800000000000001 2.8 0  10 2.8 0  0 3 0  0.2 3 0  0.4 3 0  0.6 3 0  0.8 3 0  1 3 0  1.2 3 0  1.4 3 0  1.6 3 0  1.8 3 0  2 3 0  2.2 3 0  2.4 3 0  2.6 3 0  2.8 3 0  3 3 0  3.2 3 0  3.4 3 0  3.6 3 0  3.8 3 0  4 3 0  4.2 3 0  4.4 3 0  4.6 3 0  4.8 3 0  5 3 0  5.2 3 0  5.4 3 0  5.6 3 0  5.8 3 0  6 3 0  6.2 3 0  6.4 3 0  6.6 3 0  6.8 3 0  7 3 0  7.2 3 0  7.4 3 0  7.6 3 0  7.8 3 0  8 3 0  8.199999999999999 3 0  8.4 3 0  8.6 3 0  8.800000000000001 3 0  9 3 0  9.199999999999999 3 0  9.4 3 0  9.6 3 0  9.800000000000001 3 0  10 3 0  0 3.2 0  0.2 3.2 0  0.4 3.2 0  0.6 3.2 0  0.8 3.2 0  1 3.2 0  1.2 3.2 0  1.4 3.2 0  1.6 3.2 0  1.8 3.2 0  2 3.2 0  2.2 3.2 0  2.4 3.2 0  2.6 3.2 0  2.8 3.2 0  3 3.2 0  3.2 3.2 0  3.4 3.2 0  3.6 3.2 0  3.8 3.2 0  4 3.2 0  4.2 3.2 0  4.4 3.2 0  4.6 3.2 0  4.8 3.2 0  5 3.2 0  5.2 3.2 0  5.4 3.2 0  5.6 3.2 0  5.8 3.2 0  6 3.2 0  6.2 3.2 0  6.4 3.2 0  6.6 3.2 0  6.8 3.2 0  7 3.2 0  7.2 3.2 0  7.4 3.2 0  7.6 3.2 0  7.8 3.2 0  8 3.2 0  8.199999999999999 3.2 0  8.4 3.2 0  8.6 3.2 0  8.800000000000001 3.2 0  9 3.2 0  9.199999999999999 3.2 0  9.4 3.2 0  9.6 3.2 0  9.800000000000001 3.2 0  10 3.2 0  0 3.4 0  0.2 3.4 0  0.4 3.4 0  0.6 3.4 0  0.8 3.4 0  1 
[...]
<PointData  Scalars="f_5"> 
<DataArray  type="Float64"  Name="f_5"  format="ascii">4.4102872099492686e-02  3.5688066396141160e-01  5.3781444976178561e-01  6.6740865585156328e-01  7.7071992255282851e-01  8.5946743554031657e-01  9.4163081111726887e-01  1.0233509638598624e+00  1.1101127083068421e+00  1.2073910346653798e+00  1.3213196302938099e+00  1.4592541194321544e+00  1.6256558381255701e+00  1.7828616394796513e+00  1.7948147586581915e+00  1.6863681426938053e+00  1.7742533625914316e+00  1.7860959474622871e+00  1.8113088443125083e+00  1.8278930854156368e+00  1.8402004519094362e+00  1.8495839965347289e+00  1.8567253796963816e+00  1.8619490694915493e+00  1.8653738086867120e+00  1.8669984859081501e+00  1.8667620908211879e+00  1.8645757741077900e+00  1.8603218983629357e+00  1.8538185963500589e+00  1.8447461385914481e+00  1.8324920622549588e+00  1.8158172101320817e+00  1.7904657174645477e+00  1.7791492430863491e+00  1.6916282543387779e+00  1.8032448821234381e+00  1.7925888816135460e+00  1.6353950132844248e+00  1.4688187544961790e+00  1.3305357204081629e+00  1.2160826757617167e+00  1.1181322387344821e+00  1.0305852960401016e+00  9.4799724486014836e-01  8.6490638817975063e-01  7.7518762529762175e-01  6.7087066010164742e-01  5.4023902661048306e-01  3.5822432775837082e-01  4.4455403018262798e-02  2.1565585934048354e-02  2.2694381573700620e-01  3.7707641090541200e-01  4.9850516179567417e-01  5.9639946090855434e-01  6.8222645093182832e-01  7.6236267496849663e-01  8.4262060282969253e-01  9.2823190127075228e-01  1.0244744616246071e+00  1.1365866471139257e+00  1.2725224622086948e+00  1.4551954583027333e+00  1.6778956873063957e+00  1.7628237302871699e+00  1.6171955552392749e+00  1.6367904625427994e+00  1.5678871400111081e+00  1.5741320416548390e+00  1.5857650668662429e+00  1.5956686205118129e+00  1.6034400295230269e+00  1.6093544629946552e+00  1.6136321946155483e+00  1.6163831152395889e+00  1.6176300033773932e+00  1.6173373966254108e+00  1.6154319427562245e+00  1.6118078587790940e+00  1.6063169302560996e+00  1.5987530714309746e+00  1.5889059072965488e+00  1.5772947378224886e+00  1.5712949139661234e+00  1.6419965911625720e+00  1.6245055585165979e+00  1.7723955708925356e+00  1.6878395529684276e+00  1.4648286526529521e+00  1.2820206898499724e+00  1.1457682185339055e+00  1.0331174835461689e+00  9.3618676865874295e-01  8.4977866926516732e-01  7.6864529819946015e-01  6.8757835978341897e-01  6.0078086597741664e-01  5.0188337996054178e-01  3.7942620987113934e-01  2.2820535246998849e-01  2.1800827393459062e-02  1.1386284025417930e-02  1.5361322235539049e-01  2.7113826431319238e-01  3.7257041298919291e-01  4.5989374141814932e-01  5.3862714255569488e-01  6.1386675355881160e-01  6.9035186597145060e-01  7.7273365667762017e-01  8.6585879405214683e-01  9.7485593359342770e-01  1.1073791990351065e+00  1.2827876384260974e+00  1.4967402054484240e+00  1.6018555548276907e+00  1.5124572682791144e+00  1.5312914389334902e+00  1.4607475450566862e+00  1.4701380034879907e+00  1.4834785744822119e+00  1.4944757027588633e+00  1.5030221828877630e+00  1.5094831023066573e+00  1.5141309380457459e+00  1.5171203698788118e+00  1.5185055352441086e+00  1.5182597935065347e+00  1.5162935236666313e+00  1.5124649677696251e+00  1.5065801964071868e+00  1.4983826227661057e+00  1.4875743902962200e+00  1.4743733722758741e+00  1.4652346949231430e+00  1.5366483102512842e+00  1.5205508072718856e+00  1.6118109232056173e+00  1.5069949866544416e+00  1.2929297318334840e+00  1.1173584056761121e+00  9.8444141211464697e-01  8.7483346351338742e-01  7.8094840942742683e-01  6.9770407912167853e-01  6.2028783781707875e-01  5.4407242679045542e-01  4.6433271268104542e-01  3.7597814543961655e-01  2.7349539438422427e-01  1.5486087461250370e-01  1.1636875698869471e-02  7.9388327593470764e-03  1.0833416129291223e-01  1.9684845479057536e-01  2.7877072185870916e-01  3.5287531987396248e-01  4.2247575274962323e-01  4.9092444915393946e-01  5.6196719619319846e-01  6.3954295789938398e-01  7.2793093010707421e-01  8.3173338140114172e-01  9.5777467165293395e-01  1.1225027621857244e+00  1.3227359312997482e+00  1.4389443317427748e+00  1.3811515103680609e+00  1.3773627709933418e+00  1.3557150711719750e+00  1.3704649819624106e+00  1.3861879861501896e+00  1.3987180836323778e+00  1.4083869973800280e+00  1.4156423584295443e+00  1.4208223131134670e+00  1.4241490317494525e+00  1.4257265097433049e+00  1.4255437250595868e+00  1.4234872487595525e+00  1.4193601371855147e+00  1.4128995604646737e+00  1.4037849478368258e+00  1.3916410146182703e+00  1.3762648202236867e+00  1.3621497426434266e+00  1.3811279913704295e+00  1.3892010208872145e+00  1.4496045976457526e+00  1.3339547516376107e+00  1.1337452802271024e+00  9.6874418713353838e-01  8.4216297151665664e-01  7.3760574477154517e-01  6.4832160967669994e-01  5.6976232443160535e-01  4.9768575386561703e-01  4.2817642785724075e-01  3.5750035812338399e-01  2.8230721221892630e-01  1.9928608598627676e-01  1.0962004878637176e-01  8.2048522482163645e-03  4.9367337292298133e-03  7.7246593205422612e-02  1.4310014898961440e-01  2.0730891124344694e-01  2.6833376501146666e-01  3.2803457891857207e-01  3.8870681251008754e-01  4.5322194651921932e-01  5.2482899690105811e-01  6.0720224550041391e-01  7.0438583179704051e-01  8.2214126784424613e-01  9.7372027436375597e-01  1.1589086346724891e+00  1.2872261499686652e+00  1.2609370459022697e+00  1.2200168540878382e+00  1.2696086988878830e+00  1.2745913144941052e+00  1.2916095382360662e+00  1.3061437197282457e+00  1.3174205299612398e+00  1.3258223594427145e+00  1.3317730080781840e+00  1.3355916876215745e+00  1.3374506103880259e+00  1.3373591342507285e+00  1.3351706994471328e+00  1.3306105683204330e+00  1.3233151797785323e+00  1.3128825427263717e+00  1.2990087870485441e+00  1.2826627867044267e+00  1.2787264101446976e+00  1.2303048925046864e+00  1.2721278601686463e+00  1.2996458974660408e+00  1.1719569916091890e+00  9.8675421231749683e-01  8.3466672888241666e-01  7.1611753280599511e-01  6.1794560496888229e-01  5.3446797538865776e-01  4.6169806230889010e-01  3.9599905691978798e-01  3.3414256882755550e-01  2.7326411252959137e-01  2.1106476336019994e-01  1.4568209361807166e-01  7.8604544655906147e-02  5.2250573780076200e-03  2.6880771354149246e-03  5.4239141779475204e-02  1.0212532776942163e-01  1.5125537108068876e-01  2.0016290718896060e-01  2.5010162301229016e-01  3.0267909565152240e-01  3.6010290041064569e-01  4.2501292051212536e-01  5.0050372955028422e-01  5.9007582538490277e-01  6.9836817592853817e-01  8.3541487865985387e-01  1.0048435074660180e+00  1.1454280490203357e+00  1.1622159883867538e+00  1.1226586572695152e+00  1.1629980922914089e+00  1.1779770029570591e+00  1.1969579444256910e+00  1.2144988519439606e+00  1.2279302473558882e+00  1.2378211167204136e+00  1.2447764680083144e+00  1.2492478641904696e+00  1.2514901561427396e+00  1.2515335721463714e+00  1.2491872568996725e+00  1.2440765131911158e+00  1.2357025688245926e+00  1.2234824246226450e+00  1.2069462986551691e+00  1.1887935477214064e+00  1.1691198468005544e+00  1.1359304425797536e+00  1.1770012996839836e+00  1.1608836196989252e+00  1.0208332432192539e+00  8.5103132990517816e-01  7.1304903352094184e-01  6.0357113475316182e-01  5.1267339699854841e-01  4.3579175000203957e-01  3.6947975330533389e-01  3.1067575303495909e-01  2.5675373241259747e-01  2.0550513492629738e-01  1.5531044767462096e-01  1.0490596553941839e-01  5.5695083269399419e-02  3.0049812315641176e-03  7.3572881125203576e-04  3.6186041777681727e-02  6.9392583360133889e-02  1.0561177589256038e-01  1.4358380543078864e-01  1.8427201900173915e-01  2.2885072295464123e-01  2.7901869281487174e-01  3.3688658430250612e-01  4.0500087424495623e-01  4.8633260000359868e-01  5.8452046312203043e-01  7.0648411580643133e-01  8.5857989982150640e-01  1.0077402948243164e+00  1.0716452823807801e+00  1.0482652113969217e+00  1.0403016960405618e+00  1.0778689423488708e+00  1.1042111698366353e+00  1.1241301437649647e+00  1.1400843028681762e+00  1.1517172305080432e+00  1.1598550621056369e+00  1.1651261250845082e+00  1.1678719346538633e+00  1.1681366794162940e+00  1.1656710947665636e+00  1.1599743426069398e+00  1.1503363154282660e+00  1.1359785909883087e+00  1.1171267459328955e+00  1.0878696759628725e+00  1.0584441319768927e+00  1.0696822106169666e+00  1.0921896580212025e+00  1.0279795918095025e+00  8.7857311059135756e-01  7.2542140936150667e-01  6.0192078207359156e-01  5.0202107601398271e-01  4.1892296027759279e-01  3.4905351816170310e-01  2.8948673294771049e-01  2.3769924124177955e-01  1.9158314338415577e-01  1.4942693497322820e-01  1.1003254500661588e-01  7.2416276061686075e-02  3.7757991968761388e-02  1.0867015477082340e-03  -1.0485247565672113e-03  2.1232411006916224e-02  4.1882662552695196e-02  6.6793823711098058e-02  9.4857106401776289e-02  1.2690083095080468e-01  1.6379958049757454e-01  2.0683985059228630e-01  2.5765245315602053e-01  3.1824494063081243e-01  3.9102673749885053e-01  4.7881796795304615e-01  5.8588881866053844e-01  7.1833715272112642e-01  8.6552960237008569e-01  9.7315989820542581e-01  9.9635826501112779e-01  9.7604720653196753e-01  9.7561775213428892e-01  1.0054004400960410e+00  1.0367754984439910e+00  1.0544460804066627e+00  1.0679339073803427e+00  1.0773918610893931e+00  1.0835902498886889e+00  1.0869996322293178e+00  1.0876672204697839e+00  1.0852420632061996e+00  1.0789775620478481e+00  1.0679417873620787e+00  1.0509643557153299e+00  1.0214863950470003e+00  1.0018562320475326e+00  1.0081185217550788e+00  1.0267482571055200e+00  1.0003651276012460e+00  8.9128700566157981e-01  7.4297900591163457e-01  6.0872092694569502e-01  4.9940224825165513e-01  4.0926916140647857e-01  3.3418934961293545e-01  2.7140517040286322e-01  2.1854360841489792e-01  1.7360701488544578e-01  1.3495210920192133e-01  1.0126366030590904e-01  7.1627455288107142e-02  4.5180743115669914e-02  2.2929415343506565e-02  -6.5796114739550789e-04  -2.7745551115388994e-03  8.1653666422375308e-03  1.7482792438458919e-02  3.2118607049435109e-02  5.1026363607191379e-02  7.4977174424900539e-02  1.0461822334833470e-01  1.4087599143916860e-01  1.8491816393441499e-01  2.3819654416328584e-01  3.0249387248478260e-01  3.7990608382111452e-01  4.7296064789159192e-01  5.8540875515097590e-01  7.1743553942007954e-01  8.4595771114697871e-01  9.2460959565679557e-01  9.3700170921725257e-01  9.1999846956721865e-01  9.1700129154585186e-01  9.4130742616210117e-01  9.7177730373294868e-01  9.8634587313503996e-01  9.9706301524299523e-01  1.0043471633550516e+00  1.0086554869500277e+00  1.0100196799853491e+00  1.0078979072451719e+00  1.0014495861140298e+00  9.8654953314406058e-01  9.6447868890143973e-01  9.5486395461297902e-01  9.6629127976011309e-01  9.8153917665056956e-01  9.6252823083342953e-01  8.7929084688747849e-01  7.4896150250038551e-01  6.1520951137467095e-01  5.0014314708662322e-01  4.0404370260158673e-01  3.2357041558484906e-01  2.5635582721149125e-01  2.0037882061085383e-01  1.5388805277884252e-01  1.1542625512005475e-01  8.3793772561455704e-02  5.8014333165974388e-02  3.7380118925013570e-02  2.1066063753633287e-02  9.9840143898644335e-03  -2.3378094188070556e-03  -4.5124971287807177e-03  -3.8682107177892282e-03  -5.3774819103021886e-03  -4.8189264501192981e-04  9.7265494974116632e-03  2.6017073688853091e-02  4.8857456276306742e-02  7.8842882584338345e-02  1.1667267434442813e-01  1.6320581096994444e-01  2.1953559775251444e-01  2.8702133918491879e-01  3.6719299086669632e-01  4.6182396675871190e-01  5.7267215155529450e-01  6.9486753386311628e-01  8.0456776928740770e-01  8.6823462515441840e-01  8.7812472629119620e-01  8.6283624254624347e-01  8.5835696736054168e-01  8.7923533035727441e-01  9.0563208282004570e-01  9.1750585252682137e-01  9.2585285580842069e-01  9.3138951181424701e-01  9.3392578316166108e-01  9.3262982024087038e-01  9.2209638245899062e-01  9.0811876853960471e-01  9.0820683017006199e-01  9.2464493555444871e-01  9.3839233806397737e-01  9.1913834532532623e-01  8.4757434515628238e-01  7.3469524286681676e-01  6.1093251424694750e-01  4.9747626027923436e-01  3.9919485198879573e-01  3.1504043119312997e-01  2.4364473475959833e-01  1.8366871740470295e-01  1.3384909358076039e-01  9.3119728471357494e-02  6.0597411781329553e-02  3.5525842665799050e-02  1.7232870043285557e-02  5.1628708587777164e-03  -1.5346493020540210e-03  -1.9524781904163302e-03  -4.0300426678164143e-03  -6.2233727917833425e-03  -1.5483381276683401e-02  -2.7847735344046731e-02  -3.2543261271142675e-02  -3.0832629659510849e-02  -2.1907082541731036e-02  -5.4249437691537656e-03  1.8906657056645647e-02  5.1308937359168610e-02  9.1995093094882394e-02  1.4130621218518882e-01  1.9983132059636255e-01  2.6838001211779888e-01  3.4779961491638911e-01  4.3893716347664324e-01  5.4181627678721866e-01  6.5009520148094058e-01  7.4392850852788783e-01  7.9841683350896164e-01  8.0815150680672787e-01  7.9638166047925907e-01  7.9416168260737863e-01  8.1374886837695293e-01  8.3512405591116712e-01  8.4519590021944346e-01  8.5234643585339398e-01  8.5639625878123726e-01  8.5284332285787467e-01  8.4683543496689428e-01  8.5344549375871526e-01  8.7191192429322972e-01  8.8333866123452220e-01  8.6284546661133354e-01  7.9845698770654749e-01  7.0046452438087969e-01  5.9073849537374690e-01  4.8540991397779454e-01  3.9015409900234987e-01  3.0574727759582199e-01  2.3202705058099851e-01  1.6853696434173707e-01  1.1469587432013437e-01  7.0028397938223699e-02  3.4212340298934107e-02  6.9848022285351292e-03  -1.1962615069849726e-02  -2.3030244479925653e-02  -2.6679555701926115e-02  -2.3848658113214870e-02  -1.3522873625194852e-02  -5.7235408783096560e-03  -7.8234393825148841e-03  -2.7229298701847121e-02  -5.0499097207863081e-02  -6.4830863295788160e-02  -7.1555026226595222e-02  -6.9816577163744883e-02  -5.9333712540488373e-02  -4.0053582629907110e-02  -1.2201438194227362e-02  2.3741658583219482e-02  6.7278248734301577e-02  1.1818721090360620e-01  1.7661516963924015e-01  2.4292867651176273e-01  3.1749625734202275e-01  4.0062562206514685e-01  4.9170514613573757e-01  5.8502662777364056e-01  6.6496695962739716e-01  7.1234916487550282e-01  7.2336911189492648e-01  7.1776361706731406e-01  7.2114705824448366e-01  7.4045723116736384e-01  7.5722576821615206e-01  7.6677054983617354e-01  7.7114728937487809e-01  7.7329029250327086e-01  7.8410539181273264e-01  8.0225935282469429e-01  8.1105066373966017e-01  7.9050392060806007e-01  7.3334638046328016e-01  6.4937386319433910e-01  5.5492701185404425e-01  4.6148444881803158e-01  3.7369713596919574e-01  2.9297462042326600e-01  2.1991235907536377e-01  1.5475423837794577e-01  9.7538536389683850e-02  4.8372481824180108e-02  7.5992075277445436e-03  -2.4280208183215975e-02  -4.6864214630939108e-02  -6.0042077123599089e-02  -6.4000166206552023e-02  -5.9178408085934477e-02  -4.6629772160650035e-02  -2.5275870374215696e-02  -7.3077976111035597e-03  -9.7926786155308528e-03  -3.8982907219594874e-02  -7.2977464822198371e-02  -9.6752379144364686e-02  -1.1190761105433004e-01  -1.1731279631704086e-01  -1.1260966555750371e-01  -9.7922447649690075e-02  -7.3871877961925680e-02  -4.1636333823026846e-02  -2.6117744598346698e-03  4.2121070795503757e-02  9.2048385443734337e-02  1.4712107608474073e-01  2.0752019548864484e-01  2.7350133676116561e-01  3.4536366692211801e-01  4.2265398953600314e-01  5.0085220218005200e-01  5.6780782034026644e-01  6.0907555271638392e-01  6.2302790137629538e-01  6.2614016071688372e-01  6.3676094884078893e-01  6.5503854075087375e-01  6.6883208749285261e-01  6.7929372466085003e-01  6.9375766258673455e-01  7.1127201795916117e-01  7.1877700959859125e-01  7.0102835975750633e-01  6.5339480680741857e-01  5.8419357963646867e-01  5.0569494560676875e-01  4.2606975514391288e-01  3.4874610021433466e-01  2.7506545305799379e-01  2.0585691854435015e-01  1.4171155250724093e-01  8.3041384752484529e-02  3.0298606919808829e-02  -1.5746146671507040e-02  -5.3879013227696386e-02  -8.2701598818424538e-02  -1.0115625056402949e-01  -1.0878654820408810e-01  -1.0562314007193169e-01  -9.2187729750987171e-02  -6.9821185280653800e-02  -3.7497578041695366e-02  -8.9099123232696531e-03  -2.0511968518524489e-02  -4.6751989866506173e-02  -9.1917589140135064e-02  -1.2480950311142883e-01  -1.4836590310023004e-01  -1.6145734306994311e-01  -1.6311130786149619e-01  -1.5308316312408493e-01  -1.3234537983993594e-01  -1.0307131990663802e-01  -6.7655791585607666e-02  -2.7948664309172852e-02  1.4918777023457317e-02  6.0435067408158447e-02  1.0852371597287448e-01  1.5938960221176809e-01  2.1347320112150037e-01  2.7140577768300089e-01  3.3317767243025248e-01  3.9544021094320198e-01  4.4928913020454009e-01  4.8524693628422561e-01  5.0399961384185321e-01  5.1744994981232006e-01  5.3489733492132185e-01  5.5388185529865508e-01  5.7303140031840027e-01  5.9149957632440264e-01  6.0076711284792417e-01  5.9017597812505918e-01  5.5621389843845126e-01  5.0455366244660171e-01  4.4382675940518146e-01  3.7990363021794427e-01  3.1539235338597477e-01  2.5146433331089835e-01  1.8896626524423402e-01  1.2863151354650967e-01  7.1087834522909746e-02  1.6965654912029102e-02  -3.2869240210730642e-02  -7.7033267693479693e-02  -1.1349760043376621e-01  -1.3990195292962562e-01  -1.5437300993752454e-01  -1.5615091308235782e-01  -1.4546491183943611e-01  -1.2333653047669806e-01  -9.1316139816812150e-02  -4.7229782686843337e-02  -1.5350991703374913e-02  -4.6500945902873903e-02  -4.7849076236235751e-02  -9.1869351174623803e-02  -1.2973460152454139e-01  -1.6144900096581519e-01  -1.8554919298806985e-01  -1.9912090698352766e-01  -1.9881637851063003e-01  -1.8395252498100545e-01  -1.5817760274607431e-01  -1.2617838827683556e-01  -9.0984622095687584e-02  -5.4227802038553242e-02  -1.6913158220613182e-02  2.0407007792820835e-02  5.7635546624014572e-02  9.5120858666891669e-02  1.3365555562961826e-01  1.7432548745653692e-01  2.1762197155938956e-01  2.6150828157821876e-01  3.0075309910740039e-01  3.3110765259363811e-01  3.5475943506234064e-01  3.7779023945535184e-01  4.0238231148621478e-01  4.2609609047177888e-01  4.4329040893698052e-01  4.4688021724010069e-01  4.3334901272625936e-01  4.0487334725897201e-01  3.6634138187817578e-01  3.2170558355249190e-01  2.7312652390465897e-01  2.2182522540890551e-01  1.6877456465293852e-01  1.1488722153074228e-01  6.1037559797695200e-02  8.1113965398501107e-03  -4.2887861866508024e-02  -9.0696921376396664e-02  -1.3350422324246972e-01  -1.6826863538535572e-01  -1.9064992727940461e-01  -1.9747912011158267e-01  -1.8928839251260390e-01  -1.6881807510289434e-01  -1.3834816013728982e-01  -9.8950941847150961e-02  -5.0971506869772136e-02  -4.0602120407269196e-02  -7.3346621778565699e-02  -3.0309818779145226e-02  -4.7673416217233373e-02  -8.3406104218911772e-02  -1.2105283426921307e-01  -1.5864161316885828e-01  -1.9169981741079625e-01  -2.1302557722883225e-01  -2.1598173691239522e-01  -2.0112219769293269e-01  -1.7540662018215578e-01  -1.4534309388094399e-01  -1.1438402044838621e-01  -8.4354138896241646e-02  -5.6544584105282451e-02  -3.1731007711413912e-02  -1.0024674484293668e-02  9.1627157923781181e-03  2.7078658859087633e-02  4.5382764909805716e-02  6.5412044250418744e-02  8.7253291883153353e-02  1.1012981031988017e-01  1.3446965018412901e-01  1.6224906444188070e-01  1.9390011493393430e-01  2.2609216264279819e-01  2.5300707966836611e-01  2.6946364147383345e-01  2.7327671805291232e-01  2.6504055958177541e-01  2.4644384457183025e-01  2.1917205018702959e-01  1.8473695915545743e-01  1.4455889638154787e-01  9.9986892359778451e-02  5.2320042069468137e-02  2.8856935400829150e-03  -4.6871268237285074e-02  -9.5382031359583508e-02  -1.4084471569576790e-01  -1.8013854622310049e-01  -2.0710721125063766e-01  -2.1459092395688253e-01  -2.0154204901758702e-01  -1.7466070575823950e-01  -1.4090263678659487e-01  -1.0425613817048210e-01  -6.7382206485008075e-02  -3.4249032705013449e-02  -4.3498544975309680e-02  -2.6351159848802503e-02  -1.0732738318081469e-02  -1.3787857788372593e-02  -3.3819633373764188e-02  -5.7998195497951890e-02  -9.7208864750623653e-02  -1.4140007315475006e-01  -1.82182670776596