<?xml version="1.0"?>
<VTKFile type="UnstructuredGrid"  version="0.1"  >
<UnstructuredGrid>
<Piece  NumberOfPoints="5101" NumberOfCells="10000">
<Points>
<DataArray  type="Float64"  NumberOfComponents="3"  format="ascii">0 0 0  0.2 0 0  0.4 0 0  0.6 0 0  0.8 0 0  1 0 0  1.2 0 0  1.4 0 0  1.6 0 0  1.8 0 0  2 0 0  2.2 0 0  2.4 0 0  2.6 0 0  2.8 0 0  3 0 0  3.2 0 0  3.4 0 0  3.6 0 0  3.8 0 0  4 0 0  4.2 0 0  4.4 0 0  4.6 0 0  4.8 0 0  5 0 0  5.2 0 0  5.4 0 0  5.6 0 0  5.8 0 0  6 0 0  6.2 0 0  6.4 0 0  6.6 0 0  6.8 0 0  7 0 0  7.2 0 0  7.4 0 0  7.6 0 0  7.8 0 0  8 0 0  8.199999999999999 0 0  8.4 0 0  8.6 0 0  8.800000000000001 0 0  9 0 0  9.199999999999999 0 0  9.4 0 0  9.6 0 0  9.800000000000001 0 0  10 0 0  0 0.2 0  0.2 0.2 0  0.4 0.2 0  0.6 0.2 0  0.8 0.2 0  1 0.2 0  1.2 0.2 0  1.4 0.2 0  1.6 0.2 0  1.8 0.2 0  2 0.2 0  2.2 0.2 0  2.4 0.2 0  2.6 0.2 0  2.8 0.2 0  3 0.2 0  3.2 0.2 0  3.4 0.2 0  3.6 0.2 0  3.8 0.2 0  4 0.2 0  4.2 0.2 0  4.4 0.2 0  4.6 0.2 0  4.8 0.2 0  5 0.2 0  5.2 0.2 0  5.4 0.2 0  5.6 0.2 0  5.8 0.2 0  6 0.2 0  6.2 0.2 0  6.4 0.2 0  6.6 0.2 0  6.8 0.2 0  7 0.2 0  7.2 0.2 0  7.4 0.2 0  7.6 0.2 0  7.8 0.2 0  8 0.2 0  8.199999999999999 0.2 0  8.4 0.2 0  8.6 0.2 0  8.800000000000001 0.2 0  9 0.2 0  9.199999999999999 0.2 0  9.4 0.2 0  9.6 0.2 0  9.800000000000001 0.2 0  10 0.2 0  0 0.4 0  0.2 0.4 0  0.4 0.4 0  0.6 0.4 0  0.8 0.4 0  1 0.4 0  1.2 0.4 0  1.4 0.4 0  1.6 0.4 0  1.8 0.4 0  2 0.4 0  2.2 0.4 0  2.4 0.4 0  2.6 0.4 0  2.8 0.4 0  3 0.4 0  3.2 0.4 0  3.4 0.4 0  3.6 0.4 0  3.8 0.4 0  4 0.4 0  4.2 0.4 0  4.4 0.4 0  4.6 0.4 0  4.8 0.4 0  5 0.4 0  5.2 0.4 0  5.4 0.4 0  5.6 0.4 0  5.8 0.4 0  6 0.4 0  6.2 0.4 0  6.4 0.4 0  6.6 0.4 0  6.8 0.4 0  7 0.4 0  7.2 0.4 0  7.4 0.4 0  7.6 0.4 0  7.8 0.4 0  8 0.4 0  8.199999999999999 0.4 0  8.4 0.4 0  8.6 0.4 0  8.800000000000001 0.4 0  9 0.4 0  9.199999999999999 0.4 0  9.4 0.4 0  9.6 0.4 0  9.800000000000001 0.4 0  10 0.4 0  0 0.6 0  0.2 0.6 0  0.4 0.6 0  0.6 0.6 0  0.8 0.6 0  1 0.6 0  1.2 0.6 0  1.4 0.6 0  1.6 0.6 0  1.8 0.6 0  2 0.6 0  2.2 0.6 0  2.4 0.6 0  2.6 0.6 0  2.8 0.6 0  3 0.6 0  3.2 0.6 0  3.4 0.6 0  3.6 0.6 0  3.8 0.6 0  4 0.6 0  4.2 0.6 0  4.4 0.6 0  4.6 0.6 0  4.8 0.6 0  5 0.6 0  5.2 0.6 0  5.4 0.6 0  5.6 0.6 0  5.8 0.6 0  6 0.6 0  6.2 0.6 0  6.4 0.6 0  6.6 0.6 0  6.8 0.6 0  7 0.6 0  7.2 0.6 0  7.4 0.6 0  7.6 0.6 0  7.8 0.6 0  8 0.6 0  8.199999999999999 0.6 0  8.4 0.6 0  8.6 0.6 0  8.800000000000001 0.6 0  9 0.6 0  9.199999999999999 0.6 0  9.4 0.6 0  9.6 0.6 0  9.800000000000001 0.6 0  10 0.6 0  0 0.8 0  0.2 0.8 0  0.4 0.8 0  0.6 0.8 0  0.8 0.8 0  1 0.8 0  1.2 0.8 0  1.4 0.8 0  1.6 0.8 0  1.8 0.8 0  2 0.8 0  2.2 0.8 0  2.4 0.8 0  2.6 0.8 0  2.8 0.8 0  3 0.8 0  3.2 0.8 0  3.4 0.8 0  3.6 0.8 0  3.8 0.8 0  4 0.8 0  4.2 0.8 0  4.4 0.8 0  4.6 0.8 0  4.8 0.8 0  5 0.8 0  5.2 0.8 0  5.4 0.8 0  5.6 0.8 0  5.8 0.8 0  6 0.8 0  6.2 0.8 0  6.4 0.8 0  6.6 0.8 0  6.8 0.8 0  7 0.8 0  7.2 0.8 0  7.4 0.8 0  7.6 0.8 0  7.8 0.8 0  8 0.8 0  8.199999999999999 0.8 0  8.4 0.8 0  8.6 0.8 0  8.800000000000001 0.8 0  9 0.8 0  9.199999999999999 0.8 0  9.4 0.8 0  9.6 0.8 0  9.800000000000001 0.8 0  10 0.8 0  0 1 0  0.2 1 0  0.4 1 0  0.6 1 0  0.8 1 0  1 1 0  1.2 1 0  1.4 1 0  1.6 1 0  1.8 1 0  2 1 0  2.2 1 0  2.4 1 0  2.6 1 0  2.8 1 0  3 1 0  3.2 1 0  3.4 1 0  3.6 1 0  3.8 1 0  4 1 0  4.2 1 0  4.4 1 0  4.6 1 0  4.8 1 0  5 1 0  5.2 1 0  5.4 1 0  5.6 1 0  5.8 1 0  6 1 0  6.2 1 0  6.4 1 0  6.6 1 0  6.8 1 0  7 1 0  7.2 1 0  7.4 1 0  7.6 1 0  7.8 1 0  8 1 0  8.199999999999999 1 0  8.4 1 0  8.6 1 0  8.800000000000001 1 0  9 1 0  9.199999999999999 1 0  9.4 1 0  9.6 1 0  9.800000000000001 1 0  10 1 0  0 1.2 0  0.2 1.2 0  0.4 1.2 0  0.6 1.2 0  0.8 1.2 0  1 1.2 0  1.2 1.2 0  1.4 1.2 0  1.6 1.2 0  1.8 1.2 0  2 1.2 0  2.2 1.2 0  2.4 1.2 0  2.6 1.2 0  2.8 1.2 0  3 1.2 0  3.2 1.2 0  3.4 1.2 0  3.6 1.2 0  3.8 1.2 0  4 1.2 0  4.2 1.2 0  4.4 1.2 0  4.6 1.2 0  4.8 1.2 0  5 1.2 0  5.2 1.2 0  5.4 1.2 0  5.6 1.2 0  5.8 1.2 0  6 1.2 0  6.2 1.2 0  6.4 1.2 0  6.6 1.2 0  6.8 1.2 0  7 1.2 0  7.2 1.2 0  7.4 1.2 0  7.6 1.2 0  7.8 1.2 0  8 1.2 0  8.199999999999999 1.2 0  8.4 1.2 0  8.6 1.2 0  8.800000000000001 1.2 0  9 1.2 0  9.199999999999999 1.2 0  9.4 1.2 0  9.6 1.2 0  9.800000000000001 1.2 0  10 1.2 0  0 1.4 0  0.2 1.4 0  0.4 1.4 0  0.6 1.4 0  0.8 1.4 0  1 1.4 0  1.2 1.4 0  1.4 1.4 0  1.6 1.4 0  1.8 1.4 0  2 1.4 0  2.2 1.4 0  2.4 1.4 0  2.6 1.4 0  2.8 1.4 0  3 1.4 0  3.2 1.4 0  3.4 1.4 0  3.6 1.4 0  3.8 1.4 0  4 1.4 0  4.2 1.4 0  4.4 1.4 0  4.6 1.4 0  4.8 1.4 0  5 1.4 0  5.2 1.4 0  5.4 1.4 0  5.6 1.4 0  5.8 1.4 0  6 1.4 0  6.2 1.4 0  6.4 1.4 0  6.6 1.4 0  6.8 1.4 0  7 1.4 0  7.2 1.4 0  7.4 1.4 0  7.6 1.4 0  7.8 1.4 0  8 1.4 0  8.199999999999999 1.4 0  8.4 1.4 0  8.6 1.4 0  8.800000000000001 1.4 0  9 1.4 0  9.199999999999999 1.4 0  9.4 1.4 0  9.6 1.4 0  9.800000000000001 1.4 0  10 1.4 0  0 1.6 0  0.2 1.6 0  0.4 1.6 0  0.6 1.6 0  0.8 1.6 0  1 1.6 0  1.2 1.6 0  1.4 1.6 0  1.6 1.6 0  1.8 1.6 0  2 1.6 0  2.2 1.6 0  2.4 1.6 0  2.6 1.6 0  2.8 1.6 0  3 1.6 0  3.2 1.6 0  3.4 1.6 0  3.6 1.6 0  3.8 1.6 0  4 1.6 0  4.2 1.6 0  4.4 1.6 0  4.6 1.6 0  4.8 1.6 0  5 1.6 0  5.2 1.6 0  5.4 1.6 0  5.6 1.6 0  5.8 1.6 0  6 1.6 0  6.2 1.6 0  6.4 1.6 0  6.6 1.6 0  6.8 1.6 0  7 1.6 0  7.2 1.6 0  7.4 1.6 0  7.6 1.6 0  7.8 1.6 0  8 1.6 0  8.199999999999999 1.6 0  8.4 1.6 0  8.6 1.6 0  8.800000000000001 1.6 0  9 1.6 0  9.199999999999999 1.6 0  9.4 1.6 0  9.6 1.6 0  9.800000000000001 1.6 0  10 1.6 0  0 1.8 0  0.2 1.8 0  0.4 1.8 0  0.6 1.8 0  0.8 1.8 0  1 1.8 0  1.2 1.8 0  1.4 1.8 0  1.6 1.8 0  1.8 1.8 0  2 1.8 0  2.2 1.8 0  2.4 1.8 0  2.6 1.8 0  2.8 1.8 0  3 1.8 0  3.2 1.8 0  3.4 1.8 0  3.6 1.8 0  3.8 1.8 0  4 1.8 0  4.2 1.8 0  4.4 1.8 0  4.6 1.8 0  4.8 1.8 0  5 1.8 0  5.2 1.8 0  5.4 1.8 0  5.6 1.8 0  5.8 1.8 0  6 1.8 0  6.2 1.8 0  6.4 1.8 0  6.6 1.8 0  6.8 1.8 0  7 1.8 0  7.2 1.8 0  7.4 1.8 0  7.6 1.8 0  7.8 1.8 0  8 1.8 0  8.199999999999999 1.8 0  8.4 1.8 0  8.6 1.8 0  8.800000000000001 1.8 0  9 1.8 0  9.199999999999999 1.8 0  9.4 1.8 0  9.6 1.8 0  9.800000000000001 1.8 0  10 1.8 0  0 2 0  0.2 2 0  0.4 2 0  0.6 2 0  0.8 2 0  1 2 0  1.2 2 0  1.4 2 0  1.6 2 0  1.8 2 0  2 2 0  2.2 2 0  2.4 2 0  2.6 2 0  2.8 2 0  3 2 0  3.2 2 0  3.4 2 0  3.6 2 0  3.8 2 0  4 2 0  4.2 2 0  4.4 2 0  4.6 2 0  4.8 2 0  5 2 0  5.2 2 0  5.4 2 0  5.6 2 0  5.8 2 0  6 2 0  6.2 2 0  6.4 2 0  6.6 2 0  6.8 2 0  7 2 0  7.2 2 0  7.4 2 0  7.6 2 0  7.8 2 0  8 2 0  8.199999999999999 2 0  8.4 2 0  8.6 2 0  8.800000000000001 2 0  9 2 0  9.199999999999999 2 0  9.4 2 0  9.6 2 0  9.800000000000001 2 0  10 2 0  0 2.2 0  0.2 2.2 0  0.4 2.2 0  0.6 2.2 0  0.8 2.2 0  1 2.2 0  1.2 2.2 0  1.4 2.2 0  1.6 2.2 0  1.8 2.2 0  2 2.2 0  2.2 2.2 0  2.4 2.2 0  2.6 2.2 0  2.8 2.2 0  3 2.2 0  3.2 2.2 0  3.4 2.2 0  3.6 2.2 0  3.8 2.2 0  4 2.2 0  4.2 2.2 0  4.4 2.2 0  4.6 2.2 0  4.8 2.2 0  5 2.2 0  5.2 2.2 0  5.4 2.2 0  5.6 2.2 0  5.8 2.2 0  6 2.2 0  6.2 2.2 0  6.4 2.2 0  6.6 2.2 0  6.8 2.2 0  7 2.2 0  7.2 2.2 0  7.4 2.2 0  7.6 2.2 0  7.8 2.2 0  8 2.2 0  8.199999999999999 2.2 0  8.4 2.2 0  8.6 2.2 0  8.800000000000001 2.2 0  9 2.2 0  9.199999999999999 2.2 0  9.4 2.2 0  9.6 2.2 0  9.800000000000001 2.2 0  10 2.2 0  0 2.4 0  0.2 2.4 0  0.4 2.4 0  0.6 2.4 0  0.8 2.4 0  1 2.4 0  1.2 2.4 0  1.4 2.4 0  1.6 2.4 0  1.8 2.4 0  2 2.4 0  2.2 2.4 0  2.4 2.4 0  2.6 2.4 0  2.8 2.4 0  3 2.4 0  3.2 2.4 0  3.4 2.4 0  3.6 2.4 0  3.8 2.4 0  4 2.4 0  4.2 2.4 0  4.4 2.4 0  4.6 2.4 0  4.8 2.4 0  5 2.4 0  5.2 2.4 0  5.4 2.4 0  5.6 2.4 0  5.8 2.4 0  6 2.4 0  6.2 2.4 0  6.4 2.4 0  6.6 2.4 0  6.8 2.4 0  7 2.4 0  7.2 2.4 0  7.4 2.4 0  7.6 2.4 0  7.8 2.4 0  8 2.4 0  8.199999999999999 2.4 0  8.4 2.4 0  8.6 2.4 0  8.800000000000001 2.4 0  9 2.4 0  9.199999999999999 2.4 0  9.4 2.4 0  9.6 2.4 0  9.800000000000001 2.4 0  10 2.4 0  0 2.6 0  0.2 2.6 0  0.4 2.6 0  0.6 2.6 0  0.8 2.6 0  1 2.6 0  1.2 2.6 0  1.4 2.6 0  1.6 2.6 0  1.8 2.6 0  2 2.6 0  2.2 2.6 0  2.4 2.6 0  2.6 2.6 0  2.8 2.6 0  3 2.6 0  3.2 2.6 0  3.4 2.6 0  3.6 2.6 0  3.8 2.6 0  4 2.6 0  4.2 2.6 0  4.4 2.6 0  4.6 2.6 0  4.8 2.6 0  5 2.6 0  5.2 2.6 0  5.4 2.6 0  5.6 2.6 0  5.8 2.6 0  6 2.6 0  6.2 2.6 0  6.4 2.6 0  6.6 2.6 0  6.8 2.6 0  7 2.6 0  7.2 2.6 0  7.4 2.6 0  7.6 2.6 0  7.8 2.6 0  8 2.6 0  8.199999999999999 2.6 0  8.4 2.6 0  8.6 2.6 0  8.800000000000001 2.6 0  9 2.6 0  9.199999999999999 2.6 0  9.4 2.6 0  9.6 2.6 0  9.800000000000001 2.6 0  10 2.6 0  0 2.8 0  0.2 2.8 0  0.4 2.8 0  0.6 2.8 0  0.8 2.8 0  1 2.8 0  1.2 2.8 0  1.4 2.8 0  1.6 2.8 0  1.8 2.8 0  2 2.8 0  2.2 2.8 0  2.4 2.8 0  2.6 2.8 0  2.8 2.8 0  3 2.8 0  3.2 2.8 0  3.4 2.8 0  3.6 2.8 0  3.8 2.8 0  4 2.8 0  4.2 2.8 0  4.4 2.8 0  4.6 2.8 0  4.8 2.8 0  5 2.8 0  5.2 2.8 0  5.4 2.8 0  5.6 2.8 0  5.8 2.8 0  6 2.8 0  6.2 2.8 0  6.4 2.8 0  6.6 2.8 0  6.8 2.8 0  7 2.8 0  7.2 2.8 0  7.4 2.8 0  7.6 2.8 0  7.8 2.8 0  8 2.8 0  8.199999999999999 2.8 0  8.4 2.8 0  8.6 2.8 0  8.800000000000001 2.8 0  9 2.8 0  9.199999999999999 2.8 0  9.4 2.8 0  9.6 2.8 0  9.800000000000001 2.8 0  10 2.8 0  0 3 0  0.2 3 0  0.4 3 0  0.6 3 0  0.8 3 0  1 3 0  1.2 3 0  1.4 3 0  1.6 3 0  1.8 3 0  2 3 0  2.2 3 0  2.4 3 0  2.6 3 0  2.8 3 0  3 3 0  3.2 3 0  3.4 3 0  3.6 3 0  3.8 3 0  4 3 0  4.2 3 0  4.4 3 0  4.6 3 0  4.8 3 0  5 3 0  5.2 3 0  5.4 3 0  5.6 3 0  5.8 3 0  6 3 0  6.2 3 0  6.4 3 0  6.6 3 0  6.8 3 0  7 3 0  7.2 3 0  7.4 3 0  7.6 3 0  7.8 3 0  8 3 0  8.199999999999999 3 0  8.4 3 0  8.6 3 0  8.800000000000001 3 0  9 3 0  9.199999999999999 3 0  9.4 3 0  9.6 3 0  9.800000000000001 3 0  10 3 0  0 3.2 0  0.2 3.2 0  0.4 3.2 0  0.6 3.2 0  0.8 3.2 0  1 3.2 0  1.2 3.2 0  1.4 3.2 0  1.6 3.2 0  1.8 3.2 0  2 3.2 0  2.2 3.2 0  2.4 3.2 0  2.6 3.2 0  2.8 3.2 0  3 3.2 0  3.2 3.2 0  3.4 3.2 0  3.6 3.2 0  3.8 3.2 0  4 3.2 0  4.2 3.2 0  4.4 3.2 0  4.6 3.2 0  4.8 3.2 0  5 3.2 0  5.2 3.2 0  5.4 3.2 0  5.6 3.2 0  5.8 3.2 0  6 3.2 0  6.2 3.2 0  6.4 3.2 0  6.6 3.2 0  6.8 3.2 0  7 3.2 0  7.2 3.2 0  7.4 3.2 0  7.6 3.2 0  7.8 3.2 0  8 3.2 0  8.199999999999999 3.2 0  8.4 3.2 0  8.6 3.2 0  8.800000000000001 3.2 0  9 3.2 0  9.199999999999999 3.2 0  9.4 3.2 0  9.6 3.2 0  9.800000000000001 3.2 0  10 3.2 0  0 3.4 0  0.2 3.4 0  0.4 3.4 0  0.6 3.4 0  0.8 3.4 0  1 
[...]
<PointData  Scalars="f_8"> 
<DataArray  type="Float64"  Name="f_8"  format="ascii">-1.3114438672324907e-03  6.3044443715148404e-04  1.6003976257352003e-03  1.9963416008227787e-03  2.2940425342620118e-03  2.5073829093885417e-03  2.6707841958217423e-03  2.7984231989552871e-03  2.9000888601999537e-03  2.9820757062819334e-03  3.0485747656828232e-03  3.1023188613566208e-03  3.1449572306156241e-03  3.1772897976813244e-03  3.1994256699064546e-03  3.2109044127447239e-03  3.2108031877773704e-03  3.1978436149602526e-03  3.1705057219517324e-03  3.1271511284229818e-03  3.0661532925117395e-03  2.9860293120195212e-03  2.8855656945767061e-03  2.7639299020933562e-03  2.6207603292196131e-03  2.4562294002562412e-03  2.2710771356342532e-03  2.0666152358911798e-03  1.8447039507571913e-03  1.6077054892281398e-03  1.3584185209172348e-03  1.0999986709009468e-03  8.3587013577279910e-04  5.6963387899255122e-04  3.0497836987229807e-04  4.5599441686386577e-05  -2.0486355900009616e-04  -4.4286761437689067e-04  -6.6497349593985702e-04  -8.6781122418873194e-04  -1.0479911138065413e-03  -1.2019417568022047e-03  -1.3256428403960827e-03  -1.4141957145847976e-03  -1.4611079388150169e-03  -1.4568273947026622e-03  -1.3877528664998525e-03  -1.2203587687042944e-03  -9.4178173512207035e-04  -7.3422406866095220e-05  1.7297848237809404e-03  -5.0286282311839672e-03  6.8716849967407614e-03  1.3325641656194086e-02  1.7204142122233822e-02  1.9707412785176376e-02  2.1389368042745261e-02  2.2515476397898533e-02  2.3232318496743634e-02  2.3623354321753724e-02  2.3736450415859964e-02  2.3597816917528526e-02  2.3220025174422482e-02  2.2607122231754231e-02  2.1758257039331225e-02  2.0670525239153227e-02  1.9341382960527082e-02  1.7770780571184634e-02  1.5963042180395057e-02  1.3928433771117334e-02  1.1684312120136270e-02  9.2557276940200689e-03  6.6753696644124977e-03  3.9827900295172965e-03  1.2229209542353810e-03  -1.5560076942762952e-03  -4.3049533328380438e-03  -6.9766834296855961e-03  -9.5282436100733673e-03  -1.1922999059788482e-02  -1.4132042533355923e-02  -1.6134858477276401e-02  -1.7919238872186407e-02  -1.9480540558147165e-02  -2.0820439131614629e-02  -2.1945362580985603e-02  -2.2864779227011134e-02  -2.3589476532086914e-02  -2.4129910107601286e-02  -2.4494634749545514e-02  -2.4688755762801870e-02  -2.4712255325049368e-02  -2.4557938684137245e-02  -2.4208569191298390e-02  -2.3632430383632309e-02  -2.2775867746480175e-02  -2.1549776138512004e-02  -1.9802345380477565e-02  -1.7263425907885498e-02  -1.3374345164217049e-02  -6.9324637482136662e-03  4.9556492625406831e-03  -5.0812899583334271e-04  1.3888803170375576e-02  2.3274692388197432e-02  2.9589938946335721e-02  3.3904627893514470e-02  3.6890316362876131e-02  3.8926454919150276e-02  4.0240251562875862e-02  4.0966849010972549e-02  4.1185313604150266e-02  4.0938883536332155e-02  4.0247539897926336e-02  3.9116492202418016e-02  3.7542480477288823e-02  3.5518911216099548e-02  3.3040347240632713e-02  3.0106565348535511e-02  2.6726186571717166e-02  2.2919735823576121e-02  1.8721892850433557e-02  1.4182660328890527e-02  9.3672062914596909e-03  4.3542396842567938e-03  -7.6705997887176224e-04  -5.9013407342788683e-03  -1.0952192780712602e-02  -1.5827523507915806e-02  -2.0444577894911182e-02  -2.4734034785686063e-02  -2.8642752575461589e-02  -3.2134946802037705e-02  -3.5191810356894844e-02  -3.7809786557133927e-02  -3.9997840002293117e-02  -4.1774123380285674e-02  -4.3162413662452409e-02  -4.4188606422584903e-02  -4.4877436134441652e-02  -4.5249454237044066e-02  -4.5318156968763457e-02  -4.5087008581933097e-02  -4.4545930330202724e-02  -4.3666569973094413e-02  -4.2395223208264235e-02  -4.0641441393376235e-02  -3.8258703541190549e-02  -3.5009077305567252e-02  -3.0503406824953321e-02  -2.4061275435280111e-02  -1.4604230078562184e-02  -1.7756109542443641e-04  6.7263635062935799e-03  2.1925087875051506e-02  3.2961071677450687e-02  4.0883265513455704e-02  4.6576249357193469e-02  5.0644858511383728e-02  5.3492154012602593e-02  5.5375652325590989e-02  5.6456384348379254e-02  5.6830221443912358e-02  5.6548750662028392e-02  5.5633518784704815e-02  5.4086409538711085e-02  5.1897859805225599e-02  4.9053924401487162e-02  4.5542732109403974e-02  4.1360534957468685e-02  3.6517285620896470e-02  3.1041466640241433e-02  2.4983747009804411e-02  1.8418977782137063e-02  1.1446082226930204e-02  4.1855603497715256e-03  -3.2253985369373067e-03  -1.0639859071047341e-02  -1.7909460344561895e-02  -2.4893173864261955e-02  -3.1465449980612896e-02  -3.7522782978378237e-02  -4.2987980175714688e-02  -4.7811792403156160e-02  -5.1971964833728124e-02  -5.5470110246560865e-02  -5.8327027834921726e-02  -6.0577164373443168e-02  -6.2262853351450632e-02  -6.3428809474345454e-02  -6.4117147206155786e-02  -6.4362972544948452e-02  -6.4190390119552881e-02  -6.3608575019244579e-02  -6.2607360110435564e-02  -6.1151540300896395e-02  -5.9172721000040403e-02  -5.6556921463212111e-02  -5.3125145225903329e-02  -4.8603112180196612e-02  -4.2572870302537764e-02  -3.4417122855807523e-02  -2.3240495923647322e-02  -7.9872883937515751e-03  1.4904870311733560e-02  3.0535253780769669e-02  4.2447129761615673e-02  5.1421462496340359e-02  5.8117186679298577e-02  6.3053827611902424e-02  6.6602784836591794e-02  6.9017794702224994e-02  7.0462988241330377e-02  7.1036565486958678e-02  7.0788778020548504e-02  6.9735646357111186e-02  6.7869908303783755e-02  6.5170393678556635e-02  6.1610648556623321e-02  5.7167276283852909e-02  5.1828129626079675e-02  4.5600173838069441e-02  3.8516554532557611e-02  3.0642178545675199e-02  2.2076998721723303e-02  1.2956236328724023e-02  3.4470124228424314e-03  -6.2587127166155590e-03  -1.5954434582155810e-02  -2.5431600623631631e-02  -3.4492823863240922e-02  -4.2964133904260786e-02  -5.0704712366325289e-02  -5.7612990091487105e-02  -6.3628610706638902e-02  -6.8730432402168529e-02  -7.2931292421875724e-02  -7.6270591369278481e-02  -7.8805834180309675e-02  -8.0604125811412242e-02  -8.1734337949988467e-02  -8.2260323264843963e-02  -8.2235224408078525e-02  -8.1696645002770185e-02  -8.0662226772501691e-02  -7.9124993031869456e-02  -7.7047640285382885e-02  -7.4354750118676344e-02  -7.0921641453774609e-02  -6.6558369837884532e-02  -6.0987509997976072e-02  -5.3817107670354344e-02  -4.4511008033022471e-02  -3.2397738960689711e-02  -1.6687562610386598e-02  2.3478699341525897e-02  3.9355222204770682e-02  5.1827785342760599e-02  6.1514883519950422e-02  6.8959543688605268e-02  7.4598215697472520e-02  7.8759427034382948e-02  8.1675307389501697e-02  8.3498267945755877e-02  8.4317373195435599e-02  8.4172601889804854e-02  8.3066986657865688e-02  8.0977287823977354e-02  7.7863970856701006e-02  7.3681124845143220e-02  6.8386708319642900e-02  6.1953183530359709e-02  5.4378223013893369e-02  4.5694776298102396e-02  3.5979430332894705e-02  2.5357772921876812e-02  1.4005474303806484e-02  2.1441179586162455e-03  -9.9685446569983908e-03  -2.2053348881612297e-02  -3.3827957465506847e-02  -4.5026289710811740e-02  -5.5416487579380037e-02  -6.4814964990050655e-02  -7.3094805232986060e-02  -8.0187819712488034e-02  -8.6080676757108121e-02  -9.0806381284526089e-02  -9.4432863478578363e-02  -9.7050483093303913e-02  -9.8759959230402539e-02  -9.9661740200026647e-02  -9.9847284139444811e-02  -9.9392239168420923e-02  -9.8351147827871452e-02  -9.6753061045475305e-02  -9.4597307042015230e-02  -9.1848585575929328e-02  -8.8430526248731586e-02  -8.4216885859586713e-02  -7.9019788166533364e-02  -7.2575147364675088e-02  -6.4527215219252629e-02  -5.4418068473738201e-02  -4.1688844506648635e-02  -2.5710968757947091e-02  3.2195915119956134e-02  4.8239696813555617e-02  6.1096928136886997e-02  7.1309922091482708e-02  7.9344159318352883e-02  8.5575883716814627e-02  9.0292016891205723e-02  9.3697179622510354e-02  9.5924041064233828e-02  9.7044649538248373e-02  9.7081361239728298e-02  9.6017103110790841e-02  9.3805312448573278e-02  9.0380136609086448e-02  8.5667468564757071e-02  7.9597206018871047e-02  7.2116780569701430e-02  6.3205527618184001e-02  5.2888898972534966e-02  4.1250947091062737e-02  2.8443076601114257e-02  1.4686946490257256e-02  2.6978279441300124e-04  -1.4468697149860777e-02  -2.9157133754459427e-02  -4.3418936712306747e-02  -5.6900706983572608e-02  -6.9298468303177013e-02  -8.0377810250204754e-02  -8.9985254082466895e-02  -9.8049918347970416e-02  -1.0457636790046906e-01  -1.0963089870955717e-01  -1.1332416657996576e-01  -1.1579299607862914e-01  -1.1718359753398246e-01  -1.1763755514424450e-01  -1.1728108555167115e-01  -1.1621737233486971e-01  -1.1452132421936841e-01  -1.1223587116135866e-01  -1.0936884951907709e-01  -1.0588957681877943e-01  -1.0172434279605863e-01  -9.6750256909667737e-02  -9.0787268522009149e-02  -8.3588853975169894e-02  -7.4832969362382901e-02  -6.4116053966982528e-02  -5.0952793465758595e-02  -3.4788177115959142e-02  4.0944262522261542e-02  5.7112576823600401e-02  7.0268089881931659e-02  8.0905238283993722e-02  8.9440814454230314e-02  9.6206892343157921e-02  1.0145510036823208e-01  1.0536239435425007e-01  1.0803835528733075e-01  1.0953322931161504e-01  1.0984614419369908e-01  1.0893347238707457e-01  1.0671773864113930e-01  1.0309771567977495e-01  9.7960403492214784e-02  9.1195436360884105e-02  8.2712085260809448e-02  7.2458406426946342e-02  6.0441256332660120e-02  4.6744957478294429e-02  3.1545575089567769e-02  1.5117365109517953e-02  -2.1716873607583783e-03  -1.9876988827800979e-02  -3.7506633734160293e-02  -5.4559710297308578e-02  -7.0568088868811898e-02  -8.5134953840188307e-02  -9.7963797489765400e-02  -1.0887365956050858e-01  -1.1779941762763603e-01  -1.2477894740174533e-01  -1.2993111972878174e-01  -1.3342944582134234e-01  -1.3547578977218755e-01  -1.3627735744762343e-01  -1.3602867211741998e-01  -1.3489889128133706e-01  -1.3302384449038102e-01  -1.3050163100861345e-01  -1.2739043971530895e-01  -1.2370732456447965e-01  -1.1942687784802331e-01  -1.1447901970458942e-01  -1.0874544367568140e-01  -1.0205464342198271e-01  -9.4175925702072241e-02  -8.4813297446664077e-02  -7.3600558296152821e-02  -6.0096327492371301e-02  -4.3790352480477718e-02  4.9670528739290412e-02  6.5941903541277463e-02  7.9352900809535457e-02  9.0365407895158179e-02  9.9362748144109267e-02  1.0664448766949658e-01  1.1243347998405206e-01  1.1688135954362897e-01  1.2007412598429665e-01  1.2203783139384941e-01  1.2274444478257905e-01  1.2211821616850475e-01  1.2004318197961217e-01  1.1637270975185567e-01  1.1094209891571678e-01  1.0358515963241809e-01  9.4155293819267238e-02  8.2550818347904550e-02  6.8743072309277772e-02  5.2804338861971972e-02  3.4931086777914490e-02  1.5457014434082872e-02  -5.1494998201139968e-03  -2.6307151941853974e-02  -4.7362775463452619e-02  -6.7647264032797555e-02  -8.6537671828600810e-02  -1.0351449659569396e-01  -1.1820382460092464e-01  -1.3039761489346488e-01  -1.4005067408707475e-01  -1.4725797827684475e-01  -1.5221936625600377e-01  -1.5519958472280257e-01  -1.5649051680028420e-01  -1.5638007357582007e-01  -1.5512966007999349e-01  -1.5296004110189376e-01  -1.5004412517046276e-01  -1.4650462895179553e-01  -1.4241457949936964e-01  -1.3779892301242383e-01  -1.3263594650224211e-01  -1.2685766756161077e-01  -1.2034875891406402e-01  -1.1294394114199557e-01  -1.0442409727055930e-01  -9.4511497032282898e-02  -8.2864793925058189e-02  -6.9070756515250395e-02  -5.2648121444493233e-02  5.8345090245081853e-02  7.4709426479744323e-02  8.8358854328973932e-02  9.9730443214956901e-02  1.0918316230590354e-01  1.1699221518211098e-01  1.2335752074840339e-01  1.2840883087818891e-01  1.3220993511190604e-01  1.3476227583828654e-01  1.3600844415838420e-01  1.3583619045601578e-01  1.3408390291811004e-01  1.3054884349352655e-01  1.2499968695772729e-01  1.1719495445375409e-01  1.0690859354370323e-01  9.3963034100287640e-02  7.8268391049749517e-02  5.9864112486280492e-02  3.8956641584025550e-02  1.5944379141752361e-02  -8.5794151135711958e-03  -3.3852986398249789e-02  -5.9003480073576746e-02  -8.3129329104087823e-02  -1.0539386001569603e-01  -1.2511181941513119e-01  -1.4181147231231767e-01  -1.5526133919039917e-01  -1.6546005997934665e-01  -1.7259667137196144e-01  -1.7699383725666237e-01  -1.7904730628784321e-01  -1.7917203434475656e-01  -1.7776092332615120e-01  -1.7515779896468592e-01  -1.7164314935140354e-01  -1.6742954049071543e-01  -1.6266325180775867e-01  -1.5742906961643063e-01  -1.5175590998258370e-01  -1.4562171933204945e-01  -1.3895676905872340e-01  -1.3164497010093351e-01  -1.2352318936813406e-01  -1.1437877024698480e-01  -1.0394541619328493e-01  -9.1897919733864075e-02  -7.7841758093277771e-02  -6.1316628413267495e-02  6.6943061835916556e-02  8.3397025618918000e-02  9.7283133948671191e-02  1.0901788610108525e-01  1.1894188669549802e-01  1.2731207792463736e-01  1.3431078924533121e-01  1.4005008228899193e-01  1.4457446447780367e-01  1.4786230475350046e-01  1.4982661515190127e-01  1.5031604136419158e-01  1.4911731340625589e-01  1.4596091539056072e-01  1.4053224722571211e-01  1.3249089985771906e-01  1.2150057360053358e-01  1.0727125963084690e-01  8.9613180283610747e-02  6.8498426856370503e-02  4.4121533588577143e-02  1.6945526501685924e-02  -1.2282621658072456e-02  -4.2561200735441916e-02  -7.2713492309142383e-02  -1.0151039985794991e-01  -1.2781393186466780e-01  -1.5071041109456737e-01  -1.6960348357499846e-01  -1.8424874868362331e-01  -1.9472910340622576e-01  -2.0138534180090562e-01  -2.0472461939885425e-01  -2.0532889042393879e-01  -2.0377894811897268e-01  -2.0060128673264604e-01  -1.9623788749741053e-01  -1.9103468304635951e-01  -1.8524282635269165e-01  -1.7902715292968713e-01  -1.7247743034208776e-01  -1.6561942114933093e-01  -1.5842404260579174e-01  -1.5081383856470162e-01  -1.4266658422726791e-01  -1.3381618220431729e-01  -1.2405115001765006e-01  -1.1311084004463147e-01  -1.0067997567679433e-01  -8.6376781791190738e-02  -6.9757560993724987e-02  7.5434085715928828e-02  9.1978422071905430e-02  1.0610847838653698e-01  1.1822285962898724e-01  1.2864828668405276e-01  1.3762859542887937e-01  1.4533383412888928e-01  1.5186345315857108e-01  1.5724727686549606e-01  1.6144440105248745e-01  1.6434069847434266e-01  1.6574583879526072e-01  1.6539127795848757e-01  1.6293143775143118e-01  1.5795122103124432e-01  1.4998391100072569e-01  1.3854400999748212e-01  1.2317906351201580e-01  1.0354216363495672e-01  7.9481863339275399e-02  5.1138524278846992e-02  1.9027002625859334e-02  -1.5921496299104426e-02  -5.2385458924758613e-02  -8.8762310412443826e-02  -1.2335285834907748e-01  -1.5458544072291161e-01  -1.8122553719601400e-01  -2.0251772406329055e-01  -2.1822898032104890e-01  -2.2859498185215218e-01  -2.3419864482831299e-01  -2.3582213625456414e-01  -2.3430908498197378e-01  -2.3045955747408914e-01  -2.2496489520815494e-01  -2.1837826513017231e-01  -2.1111130612270085e-01  -2.0344643748881272e-01  -1.9555620197705043e-01  -1.8752369573848726e-01  -1.7936063042444270e-01  -1.7102143998094663e-01  -1.6241303814578045e-01  -1.5340047914207544e-01  -1.4380903984728893e-01  -1.3342327521910596e-01  -1.2198331570819602e-01  -1.0917923872859935e-01  -9.4638060155362164e-02  -7.7930164296588375e-02  8.3776739720159005e-02  1.0041451610615668e-01  1.1480055027943697e-01  1.2731756853100848e-01  1.3828228818803501e-01  1.4793034289734397e-01  1.5642519478123648e-01  1.6385991971226363e-01  1.7025623332315507e-01  1.7556054475306027e-01  1.7963756252504007e-01  1.8226221939184206e-01  1.8311137215376880e-01  1.8175780515315695e-01  1.7767055341463064e-01  1.7022734517773322e-01  1.5874663234717634e-01  1.4254734590473858e-01  1.2104271350373086e-01  9.3868357744445019e-02  6.1033075705023754e-02  2.3063987324528117e-02  -1.8898810707953771e-02  -6.3109405228888235e-02  -1.0736150774782242e-01  -1.4926851533709284e-01  -1.8662109998710508e-01  -2.1772533308221773e-01  -2.4162400854047791e-01  -2.5814679422494263e-01  -2.6779869853356936e-01  -2.7154650241374650e-01  -2.7057914474865774e-01  -2.6610250934494112e-01  -2.5919894573460672e-01  -2.5075416388544136e-01  -2.4143753219161315e-01  -2.3171647026855435e-01  -2.2188759962338839e-01  -2.1211228815249758e-01  -2.0244931987859985e-01  -1.9288133963656240e-01  -1.8333422032120691e-01  -1.7368982957381504e-01  -1.6379321017703255e-01  -1.5345526205711393e-01  -1.4245186262055978e-01  -1.3051990932654531e-01  -1.1735143266036140e-01  -1.0257952573496312e-01  -8.5787128846105246e-02  9.1915748859566326e-02  1.0865106026314954e-01  1.2330657107701394e-01  1.3625096090592478e-01  1.4779468087935160e-01  1.5817019758340470e-01  1.6754073030751104e-01  1.7600058561394838e-01  1.8357221654918340e-01  1.9019927969945896e-01  1.9573586189394496e-01  1.9993222849203143e-01  2.0241820069789848e-01  2.0268661064191559e-01  2.0008141052262088e-01  1.9379800673621256e-01  1.8290698189863580e-01  1.6641554457262911e-01  1.4338158008849894e-01  1.1308941966515862e-01  7.5280180216296746e-02  3.0400884241948572e-02  -2.0198809758438376e-02  -7.4217866302332514e-02  -1.2858596963969474e-01  -1.7989170846444538e-01  -2.2496622863117977e-01  -2.6144440761507554e-01  -2.8811807112193627e-01  -3.0498348942769593e-01  -3.1301412657548894e-01  -3.1378265205920086e-01  -3.0907348268629697e-01  -3.0058311603966592e-01  -2.8974292234953342e-01  -2.7765158397961653e-01  -2.6508285203481691e-01  -2.5253314412959171e-01  -2.4028230572949769e-01  -2.2845153680898392e-01  -2.1705105451876539e-01  -2.0601553685826460e-01  -1.9522824986592183e-01  -1.8453587572193067e-01  -1.7375619965207403e-01  -1.6268050365515652e-01  -1.5107207030658001e-01  -1.3866151969078883e-01  -1.2514044987637141e-01  -1.1014622922700960e-01  -9.3273419026360396e-02  9.9781139120627568e-02  1.1661803495422916e-01  1.3155515192913689e-01  1.4494899801878924e-01  1.5710752378236204e-01  1.6826530993955618e-01  1.7859235944269322e-01  1.8819319195903084e-01  1.9710221560715038e-01  2.0527399445799149e-01  2.1256802742035855e-01  2.1872763503785447e-01  2.2335319762058956e-01  2.2587140472724238e-01  2.2550482119665136e-01  2.2125043080416837e-01  2.1188211671441851e-01  1.9599961680507672e-01  1.7215268380069823e-01  1.3906799954332913e-01  9.5988293114113069e-02  4.3088578281601328e-02  -1.8135449398961744e-02  -8.4680252993235755e-02  -1.5223098209572819e-01  -2.1581690776552295e-01  -2.7078809257567771e-01  -3.1377740081738992e-01  -3.4327858922106874e-01  -3.5966126163424883e-01  -3.6470901491360769e-01  -3.6094590767836177e-01  -3.5101419192494576e-01  -3.3725240668705436e-01  -3.2149603571008745e-01  -3.0504760446271550e-01  -2.8874335942412549e-01  -2.7305679968214158e-01  -2.5820211175708224e-01  -2.4422016321539469e-01  -2.3104232757274662e-01  -2.1853385262173514e-01  -2.0652087146716011e-01  -1.9480538056512314e-01  -1.8317181653275882e-01  -1.7138793205740138e-01  -1.5920182379412709e-01  -1.4633601751461872e-01  -1.3248034612764370e-01  -1.1727546384913504e-01  -1.0032702270410827e-01  1.0728893284113356e-01  1.2423045729506352e-01  1.3945733440916383e-01  1.5331588483224320e-01  1.6611531281494049e-01  1.7809771191255311e-01  1.8944734117147238e-01  2.0028898224167491e-01  2.1068229736225699e-01  2.2061005768525582e-01  2.2995912920016509e-01  2.3849270315062079e-01  2.4581250996898599e-01  2.5131083511812102e-01  2.5411482599495594e-01  2.5303093594387943e-01  2.4650666334626481e-01  2.3264071441326489e-01  2.0928961242328498e-01  1.7433100705232235e-01  1.2613417402553218e-01  6.4230104502774901e-02  -9.9521638819627060e-03  -9.2582725942312913e-02  -1.7755261115753926e-01  -2.5746654736280689e-01  -3.2532409880556584e-01  -3.7622445710078339e-01  -4.0834586895889141e-01  -4.2284016690950477e-01  -4.2288916408085692e-01  -4.1249732146643431e-01  -3.9550996747865441e-01  -3.7505923025902338e-01  -3.5339576818885976e-01  -3.3196174854317567e-01  -3.1156667351724465e-01  -2.9257600018862534e-01  -2.7506964809600021e-01  -2.5895835723529548e-01  -2.4406121914599138e-01  -2.3015303566421949e-01  -2.1699042134320387e-01  -2.0432388511132760e-01  -1.9190108687163079e-01  -1.7946470324406949e-01  -1.66747034520