<?xml version="1.0"?>
<VTKFile type="UnstructuredGrid"  version="0.1"  >
<UnstructuredGrid>
<Piece  NumberOfPoints="10201" NumberOfCells="20000">
<Points>
<DataArray  type="Float64"  NumberOfComponents="3"  format="ascii">0 0 0  0.2 0 0  0.4 0 0  0.6 0 0  0.8 0 0  1 0 0  1.2 0 0  1.4 0 0  1.6 0 0  1.8 0 0  2 0 0  2.2 0 0  2.4 0 0  2.6 0 0  2.8 0 0  3 0 0  3.2 0 0  3.4 0 0  3.6 0 0  3.8 0 0  4 0 0  4.2 0 0  4.4 0 0  4.6 0 0  4.8 0 0  5 0 0  5.2 0 0  5.4 0 0  5.6 0 0  5.8 0 0  6 0 0  6.2 0 0  6.4 0 0  6.6 0 0  6.8 0 0  7 0 0  7.2 0 0  7.4 0 0  7.6 0 0  7.8 0 0  8 0 0  8.199999999999999 0 0  8.4 0 0  8.6 0 0  8.800000000000001 0 0  9 0 0  9.199999999999999 0 0  9.4 0 0  9.6 0 0  9.800000000000001 0 0  10 0 0  10.2 0 0  10.4 0 0  10.6 0 0  10.8 0 0  11 0 0  11.2 0 0  11.4 0 0  11.6 0 0  11.8 0 0  12 0 0  12.2 0 0  12.4 0 0  12.6 0 0  12.8 0 0  13 0 0  13.2 0 0  13.4 0 0  13.6 0 0  13.8 0 0  14 0 0  14.2 0 0  14.4 0 0  14.6 0 0  14.8 0 0  15 0 0  15.2 0 0  15.4 0 0  15.6 0 0  15.8 0 0  16 0 0  16.2 0 0  16.4 0 0  16.6 0 0  16.8 0 0  17 0 0  17.2 0 0  17.4 0 0  17.6 0 0  17.8 0 0  18 0 0  18.2 0 0  18.4 0 0  18.6 0 0  18.8 0 0  19 0 0  19.2 0 0  19.4 0 0  19.6 0 0  19.8 0 0  20 0 0  0 0.2 0  0.2 0.2 0  0.4 0.2 0  0.6 0.2 0  0.8 0.2 0  1 0.2 0  1.2 0.2 0  1.4 0.2 0  1.6 0.2 0  1.8 0.2 0  2 0.2 0  2.2 0.2 0  2.4 0.2 0  2.6 0.2 0  2.8 0.2 0  3 0.2 0  3.2 0.2 0  3.4 0.2 0  3.6 0.2 0  3.8 0.2 0  4 0.2 0  4.2 0.2 0  4.4 0.2 0  4.6 0.2 0  4.8 0.2 0  5 0.2 0  5.2 0.2 0  5.4 0.2 0  5.6 0.2 0  5.8 0.2 0  6 0.2 0  6.2 0.2 0  6.4 0.2 0  6.6 0.2 0  6.8 0.2 0  7 0.2 0  7.2 0.2 0  7.4 0.2 0  7.6 0.2 0  7.8 0.2 0  8 0.2 0  8.199999999999999 0.2 0  8.4 0.2 0  8.6 0.2 0  8.800000000000001 0.2 0  9 0.2 0  9.199999999999999 0.2 0  9.4 0.2 0  9.6 0.2 0  9.800000000000001 0.2 0  10 0.2 0  10.2 0.2 0  10.4 0.2 0  10.6 0.2 0  10.8 0.2 0  11 0.2 0  11.2 0.2 0  11.4 0.2 0  11.6 0.2 0  11.8 0.2 0  12 0.2 0  12.2 0.2 0  12.4 0.2 0  12.6 0.2 0  12.8 0.2 0  13 0.2 0  13.2 0.2 0  13.4 0.2 0  13.6 0.2 0  13.8 0.2 0  14 0.2 0  14.2 0.2 0  14.4 0.2 0  14.6 0.2 0  14.8 0.2 0  15 0.2 0  15.2 0.2 0  15.4 0.2 0  15.6 0.2 0  15.8 0.2 0  16 0.2 0  16.2 0.2 0  16.4 0.2 0  16.6 0.2 0  16.8 0.2 0  17 0.2 0  17.2 0.2 0  17.4 0.2 0  17.6 0.2 0  17.8 0.2 0  18 0.2 0  18.2 0.2 0  18.4 0.2 0  18.6 0.2 0  18.8 0.2 0  19 0.2 0  19.2 0.2 0  19.4 0.2 0  19.6 0.2 0  19.8 0.2 0  20 0.2 0  0 0.4 0  0.2 0.4 0  0.4 0.4 0  0.6 0.4 0  0.8 0.4 0  1 0.4 0  1.2 0.4 0  1.4 0.4 0  1.6 0.4 0  1.8 0.4 0  2 0.4 0  2.2 0.4 0  2.4 0.4 0  2.6 0.4 0  2.8 0.4 0  3 0.4 0  3.2 0.4 0  3.4 0.4 0  3.6 0.4 0  3.8 0.4 0  4 0.4 0  4.2 0.4 0  4.4 0.4 0  4.6 0.4 0  4.8 0.4 0  5 0.4 0  5.2 0.4 0  5.4 0.4 0  5.6 0.4 0  5.8 0.4 0  6 0.4 0  6.2 0.4 0  6.4 0.4 0  6.6 0.4 0  6.8 0.4 0  7 0.4 0  7.2 0.4 0  7.4 0.4 0  7.6 0.4 0  7.8 0.4 0  8 0.4 0  8.199999999999999 0.4 0  8.4 0.4 0  8.6 0.4 0  8.800000000000001 0.4 0  9 0.4 0  9.199999999999999 0.4 0  9.4 0.4 0  9.6 0.4 0  9.800000000000001 0.4 0  10 0.4 0  10.2 0.4 0  10.4 0.4 0  10.6 0.4 0  10.8 0.4 0  11 0.4 0  11.2 0.4 0  11.4 0.4 0  11.6 0.4 0  11.8 0.4 0  12 0.4 0  12.2 0.4 0  12.4 0.4 0  12.6 0.4 0  12.8 0.4 0  13 0.4 0  13.2 0.4 0  13.4 0.4 0  13.6 0.4 0  13.8 0.4 0  14 0.4 0  14.2 0.4 0  14.4 0.4 0  14.6 0.4 0  14.8 0.4 0  15 0.4 0  15.2 0.4 0  15.4 0.4 0  15.6 0.4 0  15.8 0.4 0  16 0.4 0  16.2 0.4 0  16.4 0.4 0  16.6 0.4 0  16.8 0.4 0  17 0.4 0  17.2 0.4 0  17.4 0.4 0  17.6 0.4 0  17.8 0.4 0  18 0.4 0  18.2 0.4 0  18.4 0.4 0  18.6 0.4 0  18.8 0.4 0  19 0.4 0  19.2 0.4 0  19.4 0.4 0  19.6 0.4 0  19.8 0.4 0  20 0.4 0  0 0.6 0  0.2 0.6 0  0.4 0.6 0  0.6 0.6 0  0.8 0.6 0  1 0.6 0  1.2 0.6 0  1.4 0.6 0  1.6 0.6 0  1.8 0.6 0  2 0.6 0  2.2 0.6 0  2.4 0.6 0  2.6 0.6 0  2.8 0.6 0  3 0.6 0  3.2 0.6 0  3.4 0.6 0  3.6 0.6 0  3.8 0.6 0  4 0.6 0  4.2 0.6 0  4.4 0.6 0  4.6 0.6 0  4.8 0.6 0  5 0.6 0  5.2 0.6 0  5.4 0.6 0  5.6 0.6 0  5.8 0.6 0  6 0.6 0  6.2 0.6 0  6.4 0.6 0  6.6 0.6 0  6.8 0.6 0  7 0.6 0  7.2 0.6 0  7.4 0.6 0  7.6 0.6 0  7.8 0.6 0  8 0.6 0  8.199999999999999 0.6 0  8.4 0.6 0  8.6 0.6 0  8.800000000000001 0.6 0  9 0.6 0  9.199999999999999 0.6 0  9.4 0.6 0  9.6 0.6 0  9.800000000000001 0.6 0  10 0.6 0  10.2 0.6 0  10.4 0.6 0  10.6 0.6 0  10.8 0.6 0  11 0.6 0  11.2 0.6 0  11.4 0.6 0  11.6 0.6 0  11.8 0.6 0  12 0.6 0  12.2 0.6 0  12.4 0.6 0  12.6 0.6 0  12.8 0.6 0  13 0.6 0  13.2 0.6 0  13.4 0.6 0  13.6 0.6 0  13.8 0.6 0  14 0.6 0  14.2 0.6 0  14.4 0.6 0  14.6 0.6 0  14.8 0.6 0  15 0.6 0  15.2 0.6 0  15.4 0.6 0  15.6 0.6 0  15.8 0.6 0  16 0.6 0  16.2 0.6 0  16.4 0.6 0  16.6 0.6 0  16.8 0.6 0  17 0.6 0  17.2 0.6 0  17.4 0.6 0  17.6 0.6 0  17.8 0.6 0  18 0.6 0  18.2 0.6 0  18.4 0.6 0  18.6 0.6 0  18.8 0.6 0  19 0.6 0  19.2 0.6 0  19.4 0.6 0  19.6 0.6 0  19.8 0.6 0  20 0.6 0  0 0.8 0  0.2 0.8 0  0.4 0.8 0  0.6 0.8 0  0.8 0.8 0  1 0.8 0  1.2 0.8 0  1.4 0.8 0  1.6 0.8 0  1.8 0.8 0  2 0.8 0  2.2 0.8 0  2.4 0.8 0  2.6 0.8 0  2.8 0.8 0  3 0.8 0  3.2 0.8 0  3.4 0.8 0  3.6 0.8 0  3.8 0.8 0  4 0.8 0  4.2 0.8 0  4.4 0.8 0  4.6 0.8 0  4.8 0.8 0  5 0.8 0  5.2 0.8 0  5.4 0.8 0  5.6 0.8 0  5.8 0.8 0  6 0.8 0  6.2 0.8 0  6.4 0.8 0  6.6 0.8 0  6.8 0.8 0  7 0.8 0  7.2 0.8 0  7.4 0.8 0  7.6 0.8 0  7.8 0.8 0  8 0.8 0  8.199999999999999 0.8 0  8.4 0.8 0  8.6 0.8 0  8.800000000000001 0.8 0  9 0.8 0  9.199999999999999 0.8 0  9.4 0.8 0  9.6 0.8 0  9.800000000000001 0.8 0  10 0.8 0  10.2 0.8 0  10.4 0.8 0  10.6 0.8 0  10.8 0.8 0  11 0.8 0  11.2 0.8 0  11.4 0.8 0  11.6 0.8 0  11.8 0.8 0  12 0.8 0  12.2 0.8 0  12.4 0.8 0  12.6 0.8 0  12.8 0.8 0  13 0.8 0  13.2 0.8 0  13.4 0.8 0  13.6 0.8 0  13.8 0.8 0  14 0.8 0  14.2 0.8 0  14.4 0.8 0  14.6 0.8 0  14.8 0.8 0  15 0.8 0  15.2 0.8 0  15.4 0.8 0  15.6 0.8 0  15.8 0.8 0  16 0.8 0  16.2 0.8 0  16.4 0.8 0  16.6 0.8 0  16.8 0.8 0  17 0.8 0  17.2 0.8 0  17.4 0.8 0  17.6 0.8 0  17.8 0.8 0  18 0.8 0  18.2 0.8 0  18.4 0.8 0  18.6 0.8 0  18.8 0.8 0  19 0.8 0  19.2 0.8 0  19.4 0.8 0  19.6 0.8 0  19.8 0.8 0  20 0.8 0  0 1 0  0.2 1 0  0.4 1 0  0.6 1 0  0.8 1 0  1 1 0  1.2 1 0  1.4 1 0  1.6 1 0  1.8 1 0  2 1 0  2.2 1 0  2.4 1 0  2.6 1 0  2.8 1 0  3 1 0  3.2 1 0  3.4 1 0  3.6 1 0  3.8 1 0  4 1 0  4.2 1 0  4.4 1 0  4.6 1 0  4.8 1 0  5 1 0  5.2 1 0  5.4 1 0  5.6 1 0  5.8 1 0  6 1 0  6.2 1 0  6.4 1 0  6.6 1 0  6.8 1 0  7 1 0  7.2 1 0  7.4 1 0  7.6 1 0  7.8 1 0  8 1 0  8.199999999999999 1 0  8.4 1 0  8.6 1 0  8.800000000000001 1 0  9 1 0  9.199999999999999 1 0  9.4 1 0  9.6 1 0  9.800000000000001 1 0  10 1 0  10.2 1 0  10.4 1 0  10.6 1 0  10.8 1 0  11 1 0  11.2 1 0  11.4 1 0  11.6 1 0  11.8 1 0  12 1 0  12.2 1 0  12.4 1 0  12.6 1 0  12.8 1 0  13 1 0  13.2 1 0  13.4 1 0  13.6 1 0  13.8 1 0  14 1 0  14.2 1 0  14.4 1 0  14.6 1 0  14.8 1 0  15 1 0  15.2 1 0  15.4 1 0  15.6 1 0  15.8 1 0  16 1 0  16.2 1 0  16.4 1 0  16.6 1 0  16.8 1 0  17 1 0  17.2 1 0  17.4 1 0  17.6 1 0  17.8 1 0  18 1 0  18.2 1 0  18.4 1 0  18.6 1 0  18.8 1 0  19 1 0  19.2 1 0  19.4 1 0  19.6 1 0  19.8 1 0  20 1 0  0 1.2 0  0.2 1.2 0  0.4 1.2 0  0.6 1.2 0  0.8 1.2 0  1 1.2 0  1.2 1.2 0  1.4 1.2 0  1.6 1.2 0  1.8 1.2 0  2 1.2 0  2.2 1.2 0  2.4 1.2 0  2.6 1.2 0  2.8 1.2 0  3 1.2 0  3.2 1.2 0  3.4 1.2 0  3.6 1.2 0  3.8 1.2 0  4 1.2 0  4.2 1.2 0  4.4 1.2 0  4.6 1.2 0  4.8 1.2 0  5 1.2 0  5.2 1.2 0  5.4 1.2 0  5.6 1.2 0  5.8 1.2 0  6 1.2 0  6.2 1.2 0  6.4 1.2 0  6.6 1.2 0  6.8 1.2 0  7 1.2 0  7.2 1.2 0  7.4 1.2 0  7.6 1.2 0  7.8 1.2 0  8 1.2 0  8.199999999999999 1.2 0  8.4 1.2 0  8.6 1.2 0  8.800000000000001 1.2 0  9 1.2 0  9.199999999999999 1.2 0  9.4 1.2 0  9.6 1.2 0  9.800000000000001 1.2 0  10 1.2 0  10.2 1.2 0  10.4 1.2 0  10.6 1.2 0  10.8 1.2 0  11 1.2 0  11.2 1.2 0  11.4 1.2 0  11.6 1.2 0  11.8 1.2 0  12 1.2 0  12.2 1.2 0  12.4 1.2 0  12.6 1.2 0  12.8 1.2 0  13 1.2 0  13.2 1.2 0  13.4 1.2 0  13.6 1.2 0  13.8 1.2 0  14 1.2 0  14.2 1.2 0  14.4 1.2 0  14.6 1.2 0  14.8 1.2 0  15 1.2 0  15.2 1.2 0  15.4 1.2 0  15.6 1.2 0  15.8 1.2 0  16 1.2 0  16.2 1.2 0  16.4 1.2 0  16.6 1.2 0  16.8 1.2 0  17 1.2 0  17.2 1.2 0  17.4 1.2 0  17.6 1.2 0  17.8 1.2 0  18 1.2 0  18.2 1.2 0  18.4 1.2 0  18.6 1.2 0  18.8 1.2 0  19 1.2 0  19.2 1.2 0  19.4 1.2 0  19.6 1.2 0  19.8 1.2 0  20 1.2 0  0 1.4 0  0.2 1.4 0  0.4 1.4 0  0.6 1.4 0  0.8 1.4 0  1 1.4 0  1.2 1.4 0  1.4 1.4 0  1.6 1.4 0  1.8 1.4 0  2 1.4 0  2.2 1.4 0  2.4 1.4 0  2.6 1.4 0  2.8 1.4 0  3 1.4 0  3.2 1.4 0  3.4 1.4 0  3.6 1.4 0  3.8 1.4 0  4 1.4 0  4.2 1.4 0  4.4 1.4 0  4.6 1.4 0  4.8 1.4 0  5 1.4 0  5.2 1.4 0  5.4 1.4 0  5.6 1.4 0  5.8 1.4 0  6 1.4 0  6.2 1.4 0  6.4 1.4 0  6.6 1.4 0  6.8 1.4 0  7 1.4 0  7.2 1.4 0  7.4 1.4 0  7.6 1.4 0  7.8 1.4 0  8 1.4 0  8.199999999999999 1.4 0  8.4 1.4 0  8.6 1.4 0  8.800000000000001 1.4 0  9 1.4 0  9.199999999999999 1.4 0  9.4 1.4 0  9.6 1.4 0  9.800000000000001 1.4 0  10 1.4 0  10.2 1.4 0  10.4 1.4 0  10.6 1.4 0  10.8 1.4 0  11 1.4 0  11.2 1.4 0  11.4 1.4 0  11.6 1.4 0  11.8 1.4 0  12 1.4 0  12.2 1.4 0  12.4 1.4 0  12.6 1.4 0  12.8 1.4 0  13 1.4 0  13.2 1.4 0  13.4 1.4 0  13.6 1.4 0  13.8 1.4 0  14 1.4 0  14.2 1.4 0  14.4 1.4 0  14.6 1.4 0  14.8 1.4 0  15 1.4 0  15.2 1.4 0  15.4 1.4 0  15.6 1.4 0  15.8 1.4 0  16 1.4 0  16.2 1.4 0  16.4 1.4 0  16.6 1.4 0  16.8 1.4 0  17 1.4 0  17.2 1.4 0  17.4 1.4 0  17.6 1.4 0  17.8 1.4 0  18 1.4 0  18.2 1.4 0  18.4 1.4 0  18.6 1.4 0  18.8 1.4 0  19 1.4 0  19.2 1.4 0  19.4 1.4 0  19.6 1.4 0  19.8 1.4 0  20 1.4 0  0 1.6 0  0.2 1.6 0  0.4 1.6 0  0.6 1.6 0  0.8 1.6 0  1 1.6 0  1.2 1.6 0  1.4 1.6 0  1.6 1.6 0  1.8 1.6 0  2 1.6 0  2.2 1.6 0  2.4 1.6 0  2.6 1.6 0  2.8 1.6 0  3 1.6 0  3.2 1.6 0  3.4 1.6 0  3.6 1.6 0  3.8 1.6 0  4 1.6 0  4.2 1.6 0  4.4 1.6 0  4.6 1.6 0  4.8 1.6 0  5 1.6 0  5.2 1.6 0  5.4 1.6 0  5.6 1.6 0  5.8 1.6 0  6 1.6 0  6.2 1.6 0  6.4 1.6 0  6.6 1.6 0  6.8 1.6 0  7 1.6 0  7.2 1.6 0  7.4 1.6 0  7.6 1.6 0  7.8 1.6 0  8 1.6 0  8.199999999999999 1.6 0  8.4 1.6 0  8.6 1.6 0  8.800000000000001 1.6 0  9 1.6 0  9.199999999999999 1.6 0  9.4 1.6 0  9.6 1.6 0  9.800000000000001 1.6 0  10 1.6 0  10.2 1.6 0  10.4 1.6 0  10.6 1.6 0  10.8 1.6 0  11 1.6 0  11.2 1.6 0  11.4 1.6 0  11.6 1.6 0  11.8 1.6 0  12 1.6 0  12.2 1.6 0  12.4 1.6 0  12.6 1.6 0  12.8 1.6 0  13 1.6 0  13.2
[...]
<PointData  Scalars="f_12"> 
<DataArray  type="Float64"  Name="f_12"  format="ascii">-3.2079291192930804e-16  -2.5438332842417190e-16  -2.5139805846897955e-16  -3.2685788976895199e-16  -5.0039643598195774e-16  -8.1783620355264434e-16  -1.3687266246945630e-15  -2.3149444645925889e-15  -3.9453326897574088e-15  -6.7773628158418491e-15  -1.1747090243747734e-14  -2.0568380410546382e-14  -3.6420881415320256e-14  -6.5283798590312528e-14  -1.1855370753748855e-13  -2.1824699400595228e-13  -4.0746979453755093e-13  -7.7175938309912246e-13  -1.4831555717843051e-12  -2.8924397809705311e-12  -5.7248912084880930e-12  -1.1501799682436935e-11  -2.3461897688287406e-11  -4.8607481166228640e-11  -1.0232264401768686e-10  -2.1897498514425642e-10  -4.7668572496541043e-10  -1.0562748898278920e-09  -2.3842482538779097e-09  -5.4867480072938269e-09  -1.2885065350005542e-08  -3.0916868948586277e-08  -7.5922486874354603e-08  -1.9128325300063374e-07  -4.9625229712627555e-07  -1.3328206188946352e-06  -3.7337428856457550e-06  -1.1018175754652623e-05  -3.4660520983975880e-05  -1.1769768868463153e-04  -4.3581627539012347e-04  -1.7632366279820731e-03  -7.6699665148589977e-03  -3.4004265603761394e-02  -1.3521474656721383e-01  -3.9791255025072958e-01  -8.6488087705389272e-01  -1.5100626831479589e+00  -2.1479174305303763e+00  -2.6853309365083589e+00  -3.0864508768280818e+00  -3.3577482807965171e+00  -3.5259826836156400e+00  -3.6218424056458169e+00  -3.6714373558045699e+00  -3.6937686896758635e+00  -3.7011915047638553e+00  -3.7011570805543861e+00  -3.6979064758553077e+00  -3.6936941926707481e+00  -3.6896094441336809e+00  -3.6861006311970952e+00  -3.6832867194366852e+00  -3.6811309744017850e+00  -3.6795340860489514e+00  -3.6783820034607277e+00  -3.6775687095420264e+00  -3.6770053703610848e+00  -3.6766223710171615e+00  -3.6763679440371284e+00  -3.6762054509581272e+00  -3.6761103994387865e+00  -3.6760677001362896e+00  -3.6760693384728151e+00  -3.6761124749841572e+00  -3.6761979568789229e+00  -3.6763292988792116e+00  -3.6765123253649823e+00  -3.6767557697469293e+00  -3.6770731274113975e+00  -3.6774860619217686e+00  -3.6780300804710571e+00  -3.6787639903567544e+00  -3.6797834901811011e+00  -3.6812337745660400e+00  -3.6833116159412529e+00  -3.6862508994230017e+00  -3.6902900061220727e+00  -3.6956141067348729e+00  -3.7022515808666729e+00  -3.7098879401733744e+00  -3.7175453623251182e+00  -3.7230616906710239e+00  -3.7222936965797451e+00  -3.7079822403074476e+00  -3.6682608554878433e+00  -3.5850128757894795e+00  -3.4320872933587081e+00  -3.1752931545889669e+00  -2.7762692507537552e+00  -2.2277596985987365e+00  -2.5861735278396151e-16  -1.9348315811051019e-16  -1.7167251237421788e-16  -2.0802867849463610e-16  -2.9975829864911280e-16  -4.6124669356797089e-16  -7.2620583476449424e-16  -1.1545049468143716e-15  -1.8479779649097820e-15  -2.9794280449580901e-15  -4.8444056691790957e-15  -7.9545572856945109e-15  -1.3208196810991432e-14  -2.2205602549350782e-14  -3.7838611812123003e-14  -6.5406494109214254e-14  -1.1475387482826325e-13  -2.0441766697829368e-13  -3.6977230149352560e-13  -6.7923624937059138e-13  -1.2669563757512353e-12  -2.3996674483721354e-12  -4.6155212368777211e-12  -9.0169071904342069e-12  -1.7898294525071966e-11  -3.6115856274398485e-11  -7.4130248562743477e-11  -1.5489720448201659e-10  -3.2978579370267199e-10  -7.1611541737913000e-10  -1.5875586251208335e-09  -3.5966265687636955e-09  -8.3346279088986406e-09  -1.9774904553106429e-08  -4.8091128837452401e-08  -1.2006479833667555e-07  -3.0846311228615903e-07  -8.1856816955209907e-07  -2.2577443290095179e-06  -6.5518350973600062e-06  -2.0602317797896272e-05  -7.5660244957080015e-05  -3.7264344052500219e-04  -2.6108659845443731e-03  -2.0158014981582203e-02  -1.1032545273083803e-01  -3.4411372678195323e-01  -6.8026436699890802e-01  -9.8664804529239070e-01  -1.1857750685194481e+00  -1.2895261152201261e+00  -1.3211786036458193e+00  -1.3107290978731836e+00  -1.2823038988612292e+00  -1.2506262000659929e+00  -1.2226211102476077e+00  -1.2003424028306227e+00  -1.1836261449158507e+00  -1.1715723498606689e+00  -1.1631215429151185e+00  -1.1573229298659375e+00  -1.1534239321339987e+00  -1.1508589209207949e+00  -1.1492131636713929e+00  -1.1481883340610413e+00  -1.1475739902965960e+00  -1.1472247346130717e+00  -1.1470422703425114e+00  -1.1469616252602828e+00  -1.1469408391802276e+00  -1.1469534350212773e+00  -1.1469830371880203e+00  -1.1470195697469605e+00  -1.1470565607037484e+00  -1.1470892093202465e+00  -1.1471130436955974e+00  -1.1471231733526259e+00  -1.1471142538594412e+00  -1.1470812550528129e+00  -1.1470209815638064e+00  -1.1469342346821760e+00  -1.1468286946311408e+00  -1.1467222652404656e+00  -1.1466439232691852e+00  -1.1466255679103192e+00  -1.1466813238127456e+00  -1.1467797517259044e+00  -1.1468151366221104e+00  -1.1465728706825575e+00  -1.1456747557078464e+00  -1.1434901686743288e+00  -1.1390040455062036e+00  -1.1306393169084212e+00  -1.1160416957617829e+00  -1.0918505768047011e+00  -1.0534862232472617e+00  -9.9498104007485355e-01  -9.0832773659041655e-01  -7.8243001692297975e-01  -5.8638502801055314e-01  -2.4103821569544537e-01  -1.9152495688432660e-16  -1.3793863938849248e-16  -1.1319783944908480e-16  -1.2665181512252333e-16  -1.7093150438336604e-16  -2.4810007085541549e-16  -3.6901212796148670e-16  -5.5396963779159866e-16  -8.3645030332091731e-16  -1.2705571986643206e-15  -1.9442823544459156e-15  -3.0023905405954422e-15  -4.6864784806327373e-15  -7.4059287221675431e-15  -1.1864772838779208e-14  -1.9290897881434362e-14  -3.1854918196666926e-14  -5.3444719929561152e-14  -9.1115037128650287e-14  -1.5783466405615924e-13  -2.7776292803773284e-13  -4.9652983387753165e-13  -9.0157175040899211e-13  -1.6630115046320083e-12  -3.1172569887031345e-12  -5.9411250304451766e-12  -1.1521727231667894e-11  -2.2758734702845004e-11  -4.5842276761053612e-11  -9.4279142591347251e-11  -1.9820536302290003e-10  -4.2636065847090608e-10  -9.3889227870594839e-10  -2.1163035175835827e-09  -4.8788886367263058e-09  -1.1488871997874763e-08  -2.7597211345219107e-08  -6.7617139301384570e-08  -1.6987902652860822e-07  -4.4809872147203263e-07  -1.3412406174434410e-06  -5.4294596434269178e-06  -3.4793573504275432e-05  -3.1965029809845428e-04  -3.2252637058531341e-03  -2.5398645489742848e-02  -1.1261332790393985e-01  -2.7192865758545853e-01  -4.3308731069101764e-01  -5.2677574431547136e-01  -5.4592887544641966e-01  -5.2260119575444519e-01  -4.8195924615707320e-01  -4.4072215443108170e-01  -4.0648668762284978e-01  -3.8092602619963473e-01  -3.6294828089521641e-01  -3.5076794969056169e-01  -3.4277759935274638e-01  -3.3770418938672980e-01  -3.3460526673925362e-01  -3.3281897890751788e-01  -3.3188995121930648e-01  -3.3150662013683513e-01  -3.3145767502206891e-01  -3.3160216261334924e-01  -3.3184831744875198e-01  -3.3213827687790592e-01  -3.3243704362883647e-01  -3.3272461557209015e-01  -3.3299047845307567e-01  -3.3322982744152402e-01  -3.3344101049667740e-01  -3.3362379997980535e-01  -3.3377822175148980e-01  -3.3390381184618867e-01  -3.3399930660885763e-01  -3.3406285001970693e-01  -3.3409277447449437e-01  -3.3408889290409016e-01  -3.3405412761558445e-01  -3.3399621191188134e-01  -3.3392865329404897e-01  -3.3386842136098022e-01  -3.3382641400152374e-01  -3.3378983476260121e-01  -3.3370183812202486e-01  -3.3344388217057824e-01  -3.3281852479254781e-01  -3.3152505448323843e-01  -3.2912302270198396e-01  -3.2498605324831775e-01  -3.1825716642371532e-01  -3.0782750388896940e-01  -2.9237144981130159e-01  -2.7047052642822400e-01  -2.4083067143760800e-01  -2.0238663058448611e-01  -1.5419223403156077e-01  -9.1995230958883858e-02  -7.4245515193320450e-03  -1.3437018505870150e-16  -9.8036369284804774e-17  -7.6773993938931703e-17  -7.9565597121353245e-17  -1.0032684933684094e-16  -1.3757790598141605e-16  -1.9411152546088142e-16  -2.7648578417585695e-16  -3.9571950833775183e-16  -5.6899681336548105e-16  -8.2304112925718318e-16  -1.1999788871561799e-15  -1.7671411406314342e-15  -2.6337285309753083e-15  -3.9794447910458416e-15  -6.1040816117627887e-15  -9.5142336216416449e-15  -1.5076671567831461e-14  -2.4292876452598717e-14  -3.9796732214803353e-14  -6.6269293253331509e-14  -1.1214550409055010e-13  -1.9285010391072767e-13  -3.3703902950242156e-13  -5.9886262440471878e-13  -1.0825520049761411e-12  -1.9928021826013243e-12  -3.7404269748784133e-12  -7.1691765119983040e-12  -1.4053963525185205e-11  -2.8218951392400371e-11  -5.8094118974926943e-11  -1.2264901605233971e-10  -2.6531075160809253e-10  -5.8682621891298194e-10  -1.3233550374649887e-09  -3.0358499769706892e-09  -7.1064486074571763e-09  -1.7365665904869135e-08  -4.7940587762440815e-08  -1.7689475741492511e-07  -9.9244410210450302e-07  -7.7462459203174503e-06  -7.1881642372885650e-05  -6.9844345242086518e-04  -5.8062630626940928e-03  -3.0799819239909838e-02  -9.1098320117193932e-02  -1.7080496198274650e-01  -2.2949185858856003e-01  -2.4312943297230086e-01  -2.2417389632311766e-01  -1.9545356150637080e-01  -1.6851090960450760e-01  -1.4768646156712867e-01  -1.3319067724508915e-01  -1.2368136026657374e-01  -1.1767163103023927e-01  -1.1400538462350701e-01  -1.1186778384343432e-01  -1.1070526650188026e-01  -1.1015336941405725e-01  -1.0997548571490538e-01  -1.1001746628789782e-01  -1.1017873886245343e-01  -1.1039456312312586e-01  -1.1062451686632718e-01  -1.1084458606187239e-01  -1.1104159295333442e-01  -1.1120927872898496e-01  -1.1134559606716474e-01  -1.1145088180302355e-01  -1.1152665132684528e-01  -1.1157481392860934e-01  -1.1159716967734057e-01  -1.1159512224418051e-01  -1.1156961888987640e-01  -1.1152137986264296e-01  -1.1145147510486393e-01  -1.1136224573865021e-01  -1.1125848425116674e-01  -1.1114866093627795e-01  -1.1104557186264852e-01  -1.1096483057591520e-01  -1.1091903157224738e-01  -1.1090725777070311e-01  -1.1090314154134172e-01  -1.1084513873457093e-01  -1.1062875479597237e-01  -1.1009725207942023e-01  -1.0902864454244464e-01  -1.0712134886091458e-01  -1.0398653019297655e-01  -9.9161099070045958e-02  -9.2159720569608999e-02  -8.2580252036683163e-02  -7.0256392950582461e-02  -5.5375967623364775e-02  -3.8545917081784099e-02  -2.0345893011913901e-02  -3.7617981728317309e-03  -8.6741480502202963e-17  -6.3017044528624327e-17  -4.7795087650733432e-17  -4.6616956066280119e-17  -5.5228766734179527e-17  -7.1900744714269880e-17  -9.6790747388613572e-17  -1.3157193471485655e-16  -1.7945716791150382e-16  -2.4549935956761007e-16  -3.3727899595386025e-16  -4.6630122366283825e-16  -6.5035301154779682e-16  -9.1727353024216252e-16  -1.3111566668229704e-15  -1.9026853759703386e-15  -2.8064790195093466e-15  -4.2105091334916901e-15  -6.4265959408389637e-15  -9.9782728864420170e-15  -1.5755961697532293e-14  -2.5295521501914602e-14  -4.1287096159527269e-14  -6.8522238117032938e-14  -1.1569309350292344e-13  -1.9888795522042735e-13  -3.4855057378643177e-13  -6.2369217632429292e-13  -1.1416555047143917e-12  -2.1419545975084698e-12  -4.1261550404175721e-12  -8.1697925119168638e-12  -1.6626951406218598e-11  -3.4736190986018269e-11  -7.4320102658883249e-11  -1.6258545809708723e-10  -3.6540750029307352e-10  -8.6691596849170137e-10  -2.3578734077006769e-09  -8.5027257033055398e-09  -4.3770339539664980e-08  -2.9183956403650744e-07  -2.2391987287605383e-06  -1.8694121312337160e-05  -1.6212852535849403e-04  -1.2750965566018424e-03  -7.0343927771317856e-03  -2.3317648185281550e-02  -5.2167672520659021e-02  -8.5115884904423941e-02  -1.0267570921018189e-01  -9.8403819581951477e-02  -8.3607882121870952e-02  -6.8816272798837633e-02  -5.7414472650491578e-02  -4.9695766049953169e-02  -4.4831597843685907e-02  -4.1891078799472924e-02  -4.0168309595517371e-02  -3.9190094732712136e-02  -3.8654916196734029e-02  -3.8376587723933868e-02  -3.8242275738007044e-02  -3.8183826246885093e-02  -3.8159852042446152e-02  -3.8145401544514720e-02  -3.8125960244380176e-02  -3.8093708967797235e-02  -3.8045050449231461e-02  -3.7978944474206390e-02  -3.7895800170262436e-02  -3.7796759561568027e-02  -3.7683250606726955e-02  -3.7556718382962234e-02  -3.7418471795926077e-02  -3.7269616304396146e-02  -3.7111078726715027e-02  -3.6943756889385032e-02  -3.6768831000821588e-02  -3.6588251852921826e-02  -3.6405381370660947e-02  -3.6225684622069168e-02  -3.6057148028110934e-02  -3.5909637748889479e-02  -3.5792152325957838e-02  -3.5707792447970010e-02  -3.5647946914290983e-02  -3.5587574766913765e-02  -3.5481856997358917e-02  -3.5262991748485600e-02  -3.4836310900676105e-02  -3.4076934228881639e-02  -3.2830843026544640e-02  -3.0926782844139824e-02  -2.8206584459710235e-02  -2.4578235946114441e-02  -2.0085110987565387e-02  -1.4956994932251102e-02  -9.6272236193844334e-03  -4.5936870392124744e-03  -7.8788015831041233e-04  -5.4615788279813140e-17  -3.9458730023988544e-17  -2.9213100858956158e-17  -2.7141503643119220e-17  -3.0387392329104952e-17  -3.7635095935650332e-17  -4.8545463111056950e-17  -6.3302389050445394e-17  -8.2678649818439968e-17  -1.0806125761533259e-16  -1.4156469872358267e-16  -1.8629886595586436e-16  -2.4693805296416593e-16  -3.3062989559017335e-16  -4.4836677331023501e-16  -6.1716868741448252e-16  -8.6362281035476062e-16  -1.2296665644021808e-15  -1.7821456134679090e-15  -2.6288493192819459e-15  -3.9458709130651082e-15  -6.0251527532014445e-15  -9.3587316323205387e-15  -1.4791128729398408e-14  -2.3801281453282704e-14  -3.9037295553813580e-14  -6.5358320682064270e-14  -1.1192072849503065e-13  -1.9646679980183026e-13  -3.5435760406622031e-13  -6.5800925612284806e-13  -1.2594919167463379e-12  -2.4855860617331162e-12  -5.0557961521219555e-12  -1.0615867873824372e-11  -2.3262266857245211e-11  -5.5248230123337756e-11  -1.5530200338374157e-10  -5.7602491863662296e-10  -2.8445320987020731e-09  -1.6886782060521776e-08  -1.1013724818402066e-07  -7.6145134435928526e-07  -5.5441410037498128e-06  -4.1809894144243326e-05  -2.9571071041966041e-04  -1.5633952536093572e-03  -5.2466592473929636e-03  -1.2661384310817786e-02  -2.4666594843362775e-02  -3.7809981646182371e-02  -4.3024281710297575e-02  -3.8983074029796054e-02  -3.1858363593151896e-02  -2.5754792414006945e-02  -2.1498032318886126e-02  -1.8833588088071989e-02  -1.7272825849088978e-02  -1.6401891727307511e-02  -1.5933480937104103e-02  -1.5685351249900666e-02  -1.5548812976941254e-02  -1.5462015812022155e-02  -1.5391287142947465e-02  -1.5319161707822790e-02  -1.5237209245710316e-02  -1.5142021559923113e-02  -1.5032971113233944e-02  -1.4910900824726176e-02  -1.4777339101532640e-02  -1.4634038500047518e-02  -1.4482721003382984e-02  -1.4324953057550988e-02  -1.4162097964189709e-02  -1.3995312189885319e-02  -1.3825570023184677e-02  -1.3653718272269338e-02  -1.3480575751283901e-02  -1.3307096156849977e-02  -1.3134606050084348e-02  -1.2965113705783387e-02  -1.2801647839898758e-02  -1.2648478135708954e-02  -1.2510860877065483e-02  -1.2393841900682552e-02  -1.2300032059199792e-02  -1.2227005013728866e-02  -1.2165164334493233e-02  -1.2096285871388791e-02  -1.1992323726469176e-02  -1.1814225100647028e-02  -1.1511339607952267e-02  -1.1023115447690699e-02  -1.0285748758736484e-02  -9.2466450469939100e-03  -7.8876380106031058e-03  -6.2526874643920021e-03  -4.4649429884552417e-03  -2.7223768226266941e-03  -1.2317951886972672e-03  -2.4846596186984193e-04  -3.3692325231189955e-17  -2.4415627852310928e-17  -1.7806071239010602e-17  -1.5906458104749098e-17  -1.6947771480189665e-17  -2.0020379166034912e-17  -2.4784062250726864e-17  -3.1136885285830245e-17  -3.9135995636786777e-17  -4.9084695838520901e-17  -6.1540328106212304e-17  -7.7351862013245901e-17  -9.7762073298034772e-17  -1.2463251204434076e-16  -1.6077778849546454e-16  -2.1043887795606354e-16  -2.8001936625644527e-16  -3.7925950034280889e-16  -5.2312112163754804e-16  -7.3485641025448597e-16  -1.0511011393033375e-15  -1.5305077940892466e-15  -2.2687004774158379e-15  -3.4247754468058869e-15  -5.2694318303154140e-15  -8.2747936670166107e-15  -1.3286946842376089e-14  -2.1867087668740739e-14  -3.6985083770028925e-14  -6.4467899308206714e-14  -1.1611097294160901e-13  -2.1661043827920118e-13  -4.2000180227256292e-13  -8.5360873023576409e-13  -1.8616709374061015e-12  -4.6009375251683553e-12  -1.4010875274396196e-11  -5.5174115615440502e-11  -2.6740013068760860e-10  -1.4556996657000067e-09  -8.3702115014073083e-09  -4.9612493107896416e-08  -3.0246384345186904e-07  -1.9096019749762263e-06  -1.2427034964904364e-05  -7.7358750925470053e-05  -3.7711096218706212e-04  -1.2170340063607198e-03  -2.8853774059599685e-03  -5.8363858357686283e-03  -1.0510162082549322e-02  -1.5544604200077566e-02  -1.7224268251101869e-02  -1.5322777887683971e-02  -1.2503159763654265e-02  -1.0253938083462005e-02  -8.7705733735525468e-03  -7.8970351946564613e-03  -7.4283362225597499e-03  -7.1990476803320304e-03  -7.0957009104299969e-03  -7.0479020663825236e-03  -7.0155645353185024e-03  -6.9779607777850508e-03  -6.9259507388872207e-03  -6.8568457678539925e-03  -6.7712464100539533e-03  -6.6712534654967863e-03  -6.5594949669353130e-03  -6.4386086196421381e-03  -6.3109873046659111e-03  -6.1786795469545531e-03  -6.0433777841024583e-03  -5.9064514572052121e-03  -5.7689990586497304e-03  -5.6319067058765750e-03  -5.4959115443780505e-03  -5.3616756222452143e-03  -5.2298786123956423e-03  -5.1013359162082857e-03  -4.9771429081372671e-03  -4.8588303114360815e-03  -4.7484679434154119e-03  -4.6485631741272904e-03  -4.5615554677485128e-03  -4.4888761207579602e-03  -4.4298540521188904e-03  -4.3808279164542809e-03  -4.3345549931738982e-03  -4.2797568017838156e-03  -4.2007200106952925e-03  -4.0772253291359905e-03  -3.8855178926211383e-03  -3.6013850595488085e-03  -3.2063896095242406e-03  -2.6973769319300280e-03  -2.0970815281758622e-03  -1.4593759999236987e-03  -8.6368034902991296e-04  -3.8480222811332045e-04  -8.9872318778829610e-05  -2.0138382643413604e-17  -1.4709173168409050e-17  -1.0644801789015063e-17  -9.2390115964472495e-18  -9.4382876534432907e-18  -1.0691747395007742e-17  -1.2739521707416520e-17  -1.5460262884072334e-17  -1.8798041373966699e-17  -2.2749802962653302e-17  -2.7427422752745319e-17  -3.3054770110218524e-17  -3.9975910227489503e-17  -4.8689785018261530e-17  -5.9933725027451104e-17  -7.4799123441223732e-17  -9.4886338735927701e-17  -1.2254545355480640e-16  -1.6126063384863080e-16  -2.1626583867054935e-16  -2.9554765156676953e-16  -4.1151732725059720e-16  -5.8386695055303293e-16  -8.4457026949396909e-16  -1.2468765332723914e-15  -1.8819754630946243e-15  -2.9108895181951355e-15  -4.6276351469891811e-15  -7.5892108279820662e-15  -1.2896696129755690e-14  -2.2849998294562027e-14  -4.2663847557351409e-14  -8.5795194112854396e-14  -1.9395487338181458e-13  -5.2511250870909568e-13  -1.7806945147018806e-12  -7.3869667887743934e-12  -3.4883798541510681e-11  -1.7586582415158602e-10  -9.1231655713513138e-10  -4.7922307663766052e-09  -2.5400276045851635e-08  -1.3649446141030870e-07  -7.5084746980562480e-07  -4.2359896664371081e-06  -2.3179727423160081e-05  -1.0316981577566367e-04  -3.1595051325571187e-04  -7.1755052344040437e-04  -1.3895219105607283e-03  -2.5017372278316121e-03  -4.2252983510624549e-03  -6.0893542993215302e-03  -6.7151056995351293e-03  -6.0374275161780228e-03  -5.0565689477834012e-03  -4.2967905078224698e-03  -3.8163721255775745e-03  -3.5554721372474643e-03  -3.4368527863655224e-03  -3.3966260481050649e-03  -3.3902135581605907e-03  -3.3899971569394580e-03  -3.3809187081595602e-03  -3.3563021204916187e-03  -3.3146017596084511e-03  -3.2570667526807171e-03  -3.1862152610848912e-03  -3.1049434687826145e-03  -3.0160478359250349e-03  -2.9219963987771594e-03  -2.8248483253571197e-03  -2.7262575893598857e-03  -2.6275188442775898e-03  -2.5296295251674501e-03  -2.4333543060155003e-03  -2.3392868709461484e-03  -2.2479095647317238e-03  -2.1596539805383529e-03  -2.0749656237162729e-03  -1.9943741312927173e-03  -1.9185643886032544e-03  -1.8484236105385900e-03  -1.7850011493035025e-03  -1.7293010923616007e-03  -1.6819017311056001e-03  -1.6425254752209443e-03  -1.6097079203433553e-03  -1.5805946074050408e-03  -1.550789503294