<?xml version="1.0"?>
<VTKFile type="UnstructuredGrid"  version="0.1"  >
<UnstructuredGrid>
<Piece  NumberOfPoints="10201" NumberOfCells="20000">
<Points>
<DataArray  type="Float64"  NumberOfComponents="3"  format="ascii">0 0 0  0.2 0 0  0.4 0 0  0.6 0 0  0.8 0 0  1 0 0  1.2 0 0  1.4 0 0  1.6 0 0  1.8 0 0  2 0 0  2.2 0 0  2.4 0 0  2.6 0 0  2.8 0 0  3 0 0  3.2 0 0  3.4 0 0  3.6 0 0  3.8 0 0  4 0 0  4.2 0 0  4.4 0 0  4.6 0 0  4.8 0 0  5 0 0  5.2 0 0  5.4 0 0  5.6 0 0  5.8 0 0  6 0 0  6.2 0 0  6.4 0 0  6.6 0 0  6.8 0 0  7 0 0  7.2 0 0  7.4 0 0  7.6 0 0  7.8 0 0  8 0 0  8.199999999999999 0 0  8.4 0 0  8.6 0 0  8.800000000000001 0 0  9 0 0  9.199999999999999 0 0  9.4 0 0  9.6 0 0  9.800000000000001 0 0  10 0 0  10.2 0 0  10.4 0 0  10.6 0 0  10.8 0 0  11 0 0  11.2 0 0  11.4 0 0  11.6 0 0  11.8 0 0  12 0 0  12.2 0 0  12.4 0 0  12.6 0 0  12.8 0 0  13 0 0  13.2 0 0  13.4 0 0  13.6 0 0  13.8 0 0  14 0 0  14.2 0 0  14.4 0 0  14.6 0 0  14.8 0 0  15 0 0  15.2 0 0  15.4 0 0  15.6 0 0  15.8 0 0  16 0 0  16.2 0 0  16.4 0 0  16.6 0 0  16.8 0 0  17 0 0  17.2 0 0  17.4 0 0  17.6 0 0  17.8 0 0  18 0 0  18.2 0 0  18.4 0 0  18.6 0 0  18.8 0 0  19 0 0  19.2 0 0  19.4 0 0  19.6 0 0  19.8 0 0  20 0 0  0 0.2 0  0.2 0.2 0  0.4 0.2 0  0.6 0.2 0  0.8 0.2 0  1 0.2 0  1.2 0.2 0  1.4 0.2 0  1.6 0.2 0  1.8 0.2 0  2 0.2 0  2.2 0.2 0  2.4 0.2 0  2.6 0.2 0  2.8 0.2 0  3 0.2 0  3.2 0.2 0  3.4 0.2 0  3.6 0.2 0  3.8 0.2 0  4 0.2 0  4.2 0.2 0  4.4 0.2 0  4.6 0.2 0  4.8 0.2 0  5 0.2 0  5.2 0.2 0  5.4 0.2 0  5.6 0.2 0  5.8 0.2 0  6 0.2 0  6.2 0.2 0  6.4 0.2 0  6.6 0.2 0  6.8 0.2 0  7 0.2 0  7.2 0.2 0  7.4 0.2 0  7.6 0.2 0  7.8 0.2 0  8 0.2 0  8.199999999999999 0.2 0  8.4 0.2 0  8.6 0.2 0  8.800000000000001 0.2 0  9 0.2 0  9.199999999999999 0.2 0  9.4 0.2 0  9.6 0.2 0  9.800000000000001 0.2 0  10 0.2 0  10.2 0.2 0  10.4 0.2 0  10.6 0.2 0  10.8 0.2 0  11 0.2 0  11.2 0.2 0  11.4 0.2 0  11.6 0.2 0  11.8 0.2 0  12 0.2 0  12.2 0.2 0  12.4 0.2 0  12.6 0.2 0  12.8 0.2 0  13 0.2 0  13.2 0.2 0  13.4 0.2 0  13.6 0.2 0  13.8 0.2 0  14 0.2 0  14.2 0.2 0  14.4 0.2 0  14.6 0.2 0  14.8 0.2 0  15 0.2 0  15.2 0.2 0  15.4 0.2 0  15.6 0.2 0  15.8 0.2 0  16 0.2 0  16.2 0.2 0  16.4 0.2 0  16.6 0.2 0  16.8 0.2 0  17 0.2 0  17.2 0.2 0  17.4 0.2 0  17.6 0.2 0  17.8 0.2 0  18 0.2 0  18.2 0.2 0  18.4 0.2 0  18.6 0.2 0  18.8 0.2 0  19 0.2 0  19.2 0.2 0  19.4 0.2 0  19.6 0.2 0  19.8 0.2 0  20 0.2 0  0 0.4 0  0.2 0.4 0  0.4 0.4 0  0.6 0.4 0  0.8 0.4 0  1 0.4 0  1.2 0.4 0  1.4 0.4 0  1.6 0.4 0  1.8 0.4 0  2 0.4 0  2.2 0.4 0  2.4 0.4 0  2.6 0.4 0  2.8 0.4 0  3 0.4 0  3.2 0.4 0  3.4 0.4 0  3.6 0.4 0  3.8 0.4 0  4 0.4 0  4.2 0.4 0  4.4 0.4 0  4.6 0.4 0  4.8 0.4 0  5 0.4 0  5.2 0.4 0  5.4 0.4 0  5.6 0.4 0  5.8 0.4 0  6 0.4 0  6.2 0.4 0  6.4 0.4 0  6.6 0.4 0  6.8 0.4 0  7 0.4 0  7.2 0.4 0  7.4 0.4 0  7.6 0.4 0  7.8 0.4 0  8 0.4 0  8.199999999999999 0.4 0  8.4 0.4 0  8.6 0.4 0  8.800000000000001 0.4 0  9 0.4 0  9.199999999999999 0.4 0  9.4 0.4 0  9.6 0.4 0  9.800000000000001 0.4 0  10 0.4 0  10.2 0.4 0  10.4 0.4 0  10.6 0.4 0  10.8 0.4 0  11 0.4 0  11.2 0.4 0  11.4 0.4 0  11.6 0.4 0  11.8 0.4 0  12 0.4 0  12.2 0.4 0  12.4 0.4 0  12.6 0.4 0  12.8 0.4 0  13 0.4 0  13.2 0.4 0  13.4 0.4 0  13.6 0.4 0  13.8 0.4 0  14 0.4 0  14.2 0.4 0  14.4 0.4 0  14.6 0.4 0  14.8 0.4 0  15 0.4 0  15.2 0.4 0  15.4 0.4 0  15.6 0.4 0  15.8 0.4 0  16 0.4 0  16.2 0.4 0  16.4 0.4 0  16.6 0.4 0  16.8 0.4 0  17 0.4 0  17.2 0.4 0  17.4 0.4 0  17.6 0.4 0  17.8 0.4 0  18 0.4 0  18.2 0.4 0  18.4 0.4 0  18.6 0.4 0  18.8 0.4 0  19 0.4 0  19.2 0.4 0  19.4 0.4 0  19.6 0.4 0  19.8 0.4 0  20 0.4 0  0 0.6 0  0.2 0.6 0  0.4 0.6 0  0.6 0.6 0  0.8 0.6 0  1 0.6 0  1.2 0.6 0  1.4 0.6 0  1.6 0.6 0  1.8 0.6 0  2 0.6 0  2.2 0.6 0  2.4 0.6 0  2.6 0.6 0  2.8 0.6 0  3 0.6 0  3.2 0.6 0  3.4 0.6 0  3.6 0.6 0  3.8 0.6 0  4 0.6 0  4.2 0.6 0  4.4 0.6 0  4.6 0.6 0  4.8 0.6 0  5 0.6 0  5.2 0.6 0  5.4 0.6 0  5.6 0.6 0  5.8 0.6 0  6 0.6 0  6.2 0.6 0  6.4 0.6 0  6.6 0.6 0  6.8 0.6 0  7 0.6 0  7.2 0.6 0  7.4 0.6 0  7.6 0.6 0  7.8 0.6 0  8 0.6 0  8.199999999999999 0.6 0  8.4 0.6 0  8.6 0.6 0  8.800000000000001 0.6 0  9 0.6 0  9.199999999999999 0.6 0  9.4 0.6 0  9.6 0.6 0  9.800000000000001 0.6 0  10 0.6 0  10.2 0.6 0  10.4 0.6 0  10.6 0.6 0  10.8 0.6 0  11 0.6 0  11.2 0.6 0  11.4 0.6 0  11.6 0.6 0  11.8 0.6 0  12 0.6 0  12.2 0.6 0  12.4 0.6 0  12.6 0.6 0  12.8 0.6 0  13 0.6 0  13.2 0.6 0  13.4 0.6 0  13.6 0.6 0  13.8 0.6 0  14 0.6 0  14.2 0.6 0  14.4 0.6 0  14.6 0.6 0  14.8 0.6 0  15 0.6 0  15.2 0.6 0  15.4 0.6 0  15.6 0.6 0  15.8 0.6 0  16 0.6 0  16.2 0.6 0  16.4 0.6 0  16.6 0.6 0  16.8 0.6 0  17 0.6 0  17.2 0.6 0  17.4 0.6 0  17.6 0.6 0  17.8 0.6 0  18 0.6 0  18.2 0.6 0  18.4 0.6 0  18.6 0.6 0  18.8 0.6 0  19 0.6 0  19.2 0.6 0  19.4 0.6 0  19.6 0.6 0  19.8 0.6 0  20 0.6 0  0 0.8 0  0.2 0.8 0  0.4 0.8 0  0.6 0.8 0  0.8 0.8 0  1 0.8 0  1.2 0.8 0  1.4 0.8 0  1.6 0.8 0  1.8 0.8 0  2 0.8 0  2.2 0.8 0  2.4 0.8 0  2.6 0.8 0  2.8 0.8 0  3 0.8 0  3.2 0.8 0  3.4 0.8 0  3.6 0.8 0  3.8 0.8 0  4 0.8 0  4.2 0.8 0  4.4 0.8 0  4.6 0.8 0  4.8 0.8 0  5 0.8 0  5.2 0.8 0  5.4 0.8 0  5.6 0.8 0  5.8 0.8 0  6 0.8 0  6.2 0.8 0  6.4 0.8 0  6.6 0.8 0  6.8 0.8 0  7 0.8 0  7.2 0.8 0  7.4 0.8 0  7.6 0.8 0  7.8 0.8 0  8 0.8 0  8.199999999999999 0.8 0  8.4 0.8 0  8.6 0.8 0  8.800000000000001 0.8 0  9 0.8 0  9.199999999999999 0.8 0  9.4 0.8 0  9.6 0.8 0  9.800000000000001 0.8 0  10 0.8 0  10.2 0.8 0  10.4 0.8 0  10.6 0.8 0  10.8 0.8 0  11 0.8 0  11.2 0.8 0  11.4 0.8 0  11.6 0.8 0  11.8 0.8 0  12 0.8 0  12.2 0.8 0  12.4 0.8 0  12.6 0.8 0  12.8 0.8 0  13 0.8 0  13.2 0.8 0  13.4 0.8 0  13.6 0.8 0  13.8 0.8 0  14 0.8 0  14.2 0.8 0  14.4 0.8 0  14.6 0.8 0  14.8 0.8 0  15 0.8 0  15.2 0.8 0  15.4 0.8 0  15.6 0.8 0  15.8 0.8 0  16 0.8 0  16.2 0.8 0  16.4 0.8 0  16.6 0.8 0  16.8 0.8 0  17 0.8 0  17.2 0.8 0  17.4 0.8 0  17.6 0.8 0  17.8 0.8 0  18 0.8 0  18.2 0.8 0  18.4 0.8 0  18.6 0.8 0  18.8 0.8 0  19 0.8 0  19.2 0.8 0  19.4 0.8 0  19.6 0.8 0  19.8 0.8 0  20 0.8 0  0 1 0  0.2 1 0  0.4 1 0  0.6 1 0  0.8 1 0  1 1 0  1.2 1 0  1.4 1 0  1.6 1 0  1.8 1 0  2 1 0  2.2 1 0  2.4 1 0  2.6 1 0  2.8 1 0  3 1 0  3.2 1 0  3.4 1 0  3.6 1 0  3.8 1 0  4 1 0  4.2 1 0  4.4 1 0  4.6 1 0  4.8 1 0  5 1 0  5.2 1 0  5.4 1 0  5.6 1 0  5.8 1 0  6 1 0  6.2 1 0  6.4 1 0  6.6 1 0  6.8 1 0  7 1 0  7.2 1 0  7.4 1 0  7.6 1 0  7.8 1 0  8 1 0  8.199999999999999 1 0  8.4 1 0  8.6 1 0  8.800000000000001 1 0  9 1 0  9.199999999999999 1 0  9.4 1 0  9.6 1 0  9.800000000000001 1 0  10 1 0  10.2 1 0  10.4 1 0  10.6 1 0  10.8 1 0  11 1 0  11.2 1 0  11.4 1 0  11.6 1 0  11.8 1 0  12 1 0  12.2 1 0  12.4 1 0  12.6 1 0  12.8 1 0  13 1 0  13.2 1 0  13.4 1 0  13.6 1 0  13.8 1 0  14 1 0  14.2 1 0  14.4 1 0  14.6 1 0  14.8 1 0  15 1 0  15.2 1 0  15.4 1 0  15.6 1 0  15.8 1 0  16 1 0  16.2 1 0  16.4 1 0  16.6 1 0  16.8 1 0  17 1 0  17.2 1 0  17.4 1 0  17.6 1 0  17.8 1 0  18 1 0  18.2 1 0  18.4 1 0  18.6 1 0  18.8 1 0  19 1 0  19.2 1 0  19.4 1 0  19.6 1 0  19.8 1 0  20 1 0  0 1.2 0  0.2 1.2 0  0.4 1.2 0  0.6 1.2 0  0.8 1.2 0  1 1.2 0  1.2 1.2 0  1.4 1.2 0  1.6 1.2 0  1.8 1.2 0  2 1.2 0  2.2 1.2 0  2.4 1.2 0  2.6 1.2 0  2.8 1.2 0  3 1.2 0  3.2 1.2 0  3.4 1.2 0  3.6 1.2 0  3.8 1.2 0  4 1.2 0  4.2 1.2 0  4.4 1.2 0  4.6 1.2 0  4.8 1.2 0  5 1.2 0  5.2 1.2 0  5.4 1.2 0  5.6 1.2 0  5.8 1.2 0  6 1.2 0  6.2 1.2 0  6.4 1.2 0  6.6 1.2 0  6.8 1.2 0  7 1.2 0  7.2 1.2 0  7.4 1.2 0  7.6 1.2 0  7.8 1.2 0  8 1.2 0  8.199999999999999 1.2 0  8.4 1.2 0  8.6 1.2 0  8.800000000000001 1.2 0  9 1.2 0  9.199999999999999 1.2 0  9.4 1.2 0  9.6 1.2 0  9.800000000000001 1.2 0  10 1.2 0  10.2 1.2 0  10.4 1.2 0  10.6 1.2 0  10.8 1.2 0  11 1.2 0  11.2 1.2 0  11.4 1.2 0  11.6 1.2 0  11.8 1.2 0  12 1.2 0  12.2 1.2 0  12.4 1.2 0  12.6 1.2 0  12.8 1.2 0  13 1.2 0  13.2 1.2 0  13.4 1.2 0  13.6 1.2 0  13.8 1.2 0  14 1.2 0  14.2 1.2 0  14.4 1.2 0  14.6 1.2 0  14.8 1.2 0  15 1.2 0  15.2 1.2 0  15.4 1.2 0  15.6 1.2 0  15.8 1.2 0  16 1.2 0  16.2 1.2 0  16.4 1.2 0  16.6 1.2 0  16.8 1.2 0  17 1.2 0  17.2 1.2 0  17.4 1.2 0  17.6 1.2 0  17.8 1.2 0  18 1.2 0  18.2 1.2 0  18.4 1.2 0  18.6 1.2 0  18.8 1.2 0  19 1.2 0  19.2 1.2 0  19.4 1.2 0  19.6 1.2 0  19.8 1.2 0  20 1.2 0  0 1.4 0  0.2 1.4 0  0.4 1.4 0  0.6 1.4 0  0.8 1.4 0  1 1.4 0  1.2 1.4 0  1.4 1.4 0  1.6 1.4 0  1.8 1.4 0  2 1.4 0  2.2 1.4 0  2.4 1.4 0  2.6 1.4 0  2.8 1.4 0  3 1.4 0  3.2 1.4 0  3.4 1.4 0  3.6 1.4 0  3.8 1.4 0  4 1.4 0  4.2 1.4 0  4.4 1.4 0  4.6 1.4 0  4.8 1.4 0  5 1.4 0  5.2 1.4 0  5.4 1.4 0  5.6 1.4 0  5.8 1.4 0  6 1.4 0  6.2 1.4 0  6.4 1.4 0  6.6 1.4 0  6.8 1.4 0  7 1.4 0  7.2 1.4 0  7.4 1.4 0  7.6 1.4 0  7.8 1.4 0  8 1.4 0  8.199999999999999 1.4 0  8.4 1.4 0  8.6 1.4 0  8.800000000000001 1.4 0  9 1.4 0  9.199999999999999 1.4 0  9.4 1.4 0  9.6 1.4 0  9.800000000000001 1.4 0  10 1.4 0  10.2 1.4 0  10.4 1.4 0  10.6 1.4 0  10.8 1.4 0  11 1.4 0  11.2 1.4 0  11.4 1.4 0  11.6 1.4 0  11.8 1.4 0  12 1.4 0  12.2 1.4 0  12.4 1.4 0  12.6 1.4 0  12.8 1.4 0  13 1.4 0  13.2 1.4 0  13.4 1.4 0  13.6 1.4 0  13.8 1.4 0  14 1.4 0  14.2 1.4 0  14.4 1.4 0  14.6 1.4 0  14.8 1.4 0  15 1.4 0  15.2 1.4 0  15.4 1.4 0  15.6 1.4 0  15.8 1.4 0  16 1.4 0  16.2 1.4 0  16.4 1.4 0  16.6 1.4 0  16.8 1.4 0  17 1.4 0  17.2 1.4 0  17.4 1.4 0  17.6 1.4 0  17.8 1.4 0  18 1.4 0  18.2 1.4 0  18.4 1.4 0  18.6 1.4 0  18.8 1.4 0  19 1.4 0  19.2 1.4 0  19.4 1.4 0  19.6 1.4 0  19.8 1.4 0  20 1.4 0  0 1.6 0  0.2 1.6 0  0.4 1.6 0  0.6 1.6 0  0.8 1.6 0  1 1.6 0  1.2 1.6 0  1.4 1.6 0  1.6 1.6 0  1.8 1.6 0  2 1.6 0  2.2 1.6 0  2.4 1.6 0  2.6 1.6 0  2.8 1.6 0  3 1.6 0  3.2 1.6 0  3.4 1.6 0  3.6 1.6 0  3.8 1.6 0  4 1.6 0  4.2 1.6 0  4.4 1.6 0  4.6 1.6 0  4.8 1.6 0  5 1.6 0  5.2 1.6 0  5.4 1.6 0  5.6 1.6 0  5.8 1.6 0  6 1.6 0  6.2 1.6 0  6.4 1.6 0  6.6 1.6 0  6.8 1.6 0  7 1.6 0  7.2 1.6 0  7.4 1.6 0  7.6 1.6 0  7.8 1.6 0  8 1.6 0  8.199999999999999 1.6 0  8.4 1.6 0  8.6 1.6 0  8.800000000000001 1.6 0  9 1.6 0  9.199999999999999 1.6 0  9.4 1.6 0  9.6 1.6 0  9.800000000000001 1.6 0  10 1.6 0  10.2 1.6 0  10.4 1.6 0  10.6 1.6 0  10.8 1.6 0  11 1.6 0  11.2 1.6 0  11.4 1.6 0  11.6 1.6 0  11.8 1.6 0  12 1.6 0  12.2 1.6 0  12.4 1.6 0  12.6 1.6 0  12.8 1.6 0  13 1.6 0  13.2
[...]
<PointData  Scalars="f_6"> 
<DataArray  type="Float64"  Name="f_6"  format="ascii">1.3032359228642461e+00  2.4037160019698951e+00  2.2735192751815201e+00  2.2291521223337498e+00  2.3482591897568104e+00  2.5297093468594976e+00  2.7346515561155078e+00  2.9473437688472139e+00  3.1622412843338092e+00  3.3774993316734889e+00  3.5923626129199131e+00  3.8060631155905185e+00  4.0175997081677259e+00  4.2258697516756376e+00  4.4298667523709243e+00  4.6288329065903167e+00  4.8223419322390662e+00  5.0103192578182316e+00  5.1930127200600014e+00  5.3709239355425034e+00  5.5447084752259101e+00  5.7150591652958624e+00  5.8826000469813327e+00  6.0478211485199189e+00  6.2110592511225482e+00  6.3724990693241468e+00  6.5321774310326024e+00  6.6900137673307816e+00  6.8459134765774117e+00  6.9999758758857853e+00  7.1528143780316915e+00  7.3059738161658618e+00  7.4623859374529538e+00  7.6267282193446668e+00  7.8054617250773752e+00  8.0062638500952232e+00  8.2365712684642514e+00  8.5009609817028053e+00  8.7969723801037425e+00  9.1085285236873279e+00  9.3950990276907049e+00  9.5718238463270957e+00  9.4625787120713660e+00  8.6466846811975095e+00  6.2115752537546935e+00  2.3278904080259193e+00  6.5000795290691271e-01  1.1450473516973558e+00  1.5658969134466993e+00  1.9053257700022601e+00  2.1827089087037042e+00  2.4072023041711570e+00  2.5823698159357984e+00  2.7132396419471587e+00  2.8066145415128432e+00  2.8704249535695623e+00  2.9129444978071111e+00  2.9405410575591406e+00  2.9579428943160506e+00  2.9686462284118531e+00  2.9750432870778973e+00  2.9787071580956570e+00  2.9806647167474813e+00  2.9815832366935253e+00  2.9818914367122380e+00  2.9818594974757326e+00  2.9816531546585074e+00  2.9813705182925956e+00  2.9810669664645233e+00  2.9807717333842749e+00  2.9804987612390974e+00  2.9802536624878475e+00  2.9800381230844657e+00  2.9798526940513654e+00  2.9796985865848757e+00  2.9795787460321503e+00  2.9794981647625978e+00  2.9794632407820294e+00  2.9794801359065382e+00  2.9795524673014939e+00  2.9796787250592627e+00  2.9798485783083097e+00  2.9800363496253426e+00  2.9801976823953171e+00  2.9802894701673797e+00  2.9803213359730671e+00  2.9804130244582860e+00  2.9808369599854885e+00  2.9820632486340184e+00  2.9848381513201043e+00  2.9903131752765604e+00  3.0002268078032430e+00  3.0171333298266236e+00  3.0446769703625982e+00  3.0879218689263253e+00  3.1539142298838003e+00  3.2526252928470338e+00  3.4007179701898975e+00  3.6341202984820429e+00  3.9671264481336115e+00  4.6260868216519979e+00  1.2137687862833324e+00  2.3094415300738249e+00  2.1615155984871888e+00  2.1116567160324591e+00  2.2268616985957768e+00  2.4069982104901664e+00  2.6085498515926266e+00  2.8179156616552099e+00  3.0301122318960596e+00  3.2430377741915248e+00  3.4557206153116837e+00  3.6673541852945091e+00  3.8769266676659604e+00  4.0833049648739204e+00  4.2854468187264638e+00  4.4825679269974099e+00  4.6742236863396638e+00  4.8603181662387192e+00  5.0410618253697166e+00  5.2168947668996646e+00  5.3883880220342428e+00  5.5561372244370526e+00  5.7206692516337565e+00  5.8823812941475273e+00  6.0415141263013972e+00  6.1981408800506745e+00  6.3521568793425365e+00  6.5032856481451491e+00  6.6511393480886376e+00  6.7953646306441451e+00  6.9358881721066945e+00  7.0732637735683896e+00  7.2090950493568631e+00  7.3464519697694781e+00  7.4901311512722133e+00  7.6465675591396689e+00  7.8232138749432334e+00  8.0272154860376990e+00  8.2630873889624166e+00  8.5287273634774809e+00  8.8084622923662135e+00  9.0605819716891141e+00  9.1924082481941678e+00  8.9925356825542284e+00  7.8885605828817429e+00  4.7659305157284688e+00  8.8442902725082662e-01  5.1555719797739796e-01  1.3477040594801148e+00  1.8198327204776035e+00  2.1989760508341125e+00  2.4901730940920608e+00  2.7022130024426780e+00  2.8475302744553708e+00  2.9410341883725897e+00  2.9980994208937584e+00  3.0319396643207521e+00  3.0509780958922859e+00  3.0610038800873554e+00  3.0658338208674834e+00  3.0677243475602878e+00  3.0680028718973018e+00  3.0674554355492845e+00  3.0665403725569305e+00  3.0655149701764168e+00  3.0645143941549979e+00  3.0636016674058553e+00  3.0627991002474357e+00  3.0621076578825686e+00  3.0615185481156053e+00  3.0610199074294373e+00  3.0606005302843582e+00  3.0602519448597585e+00  3.0599696316505818e+00  3.0597537044608951e+00  3.0596089407435083e+00  3.0595438076285424e+00  3.0595682829795825e+00  3.0596908678621020e+00  3.0599157769645222e+00  3.0602407301893240e+00  3.0606538379940655e+00  3.0611305339829360e+00  3.0616462589016042e+00  3.0622272095420624e+00  3.0630238121475681e+00  3.0643600133389373e+00  3.0667556275306094e+00  3.0709661042914260e+00  3.0780685634072613e+00  3.0895897652691033e+00  3.1076552273572036e+00  3.1351319150752248e+00  3.1757364582071603e+00  3.2341063851666476e+00  3.3160340919618290e+00  3.4290961376037501e+00  3.5898129152306630e+00  3.8246808670984676e+00  4.3873475286381733e+00  6.1738143603724343e+00  1.1194506214193300e+00  2.2201006751264338e+00  2.0669088649818175e+00  1.9991529209010224e+00  2.1087865383958109e+00  2.2849225684327399e+00  2.4850341251712993e+00  2.6908632346291825e+00  2.8995730990057420e+00  3.1096269130179128e+00  3.3197974514838280e+00  3.5290612695959336e+00  3.7363665806325841e+00  3.9405680473018312e+00  4.1405916104134493e+00  4.3356162001184453e+00  4.5251700987938026e+00  4.7091388645944612e+00  4.8877118900273269e+00  5.0612927667212091e+00  5.2303925816623336e+00  5.3955248626242707e+00  5.5571227749586480e+00  5.7154910585127432e+00  5.8707837725777541e+00  6.0229857319579558e+00  6.1718900764351039e+00  6.3170901037117533e+00  6.4580155348585269e+00  6.5940360712683557e+00  6.7246460263952033e+00  6.8497388184416206e+00  6.9699625374011127e+00  7.0871078954139257e+00  7.2044312031877533e+00  7.3267931907025634e+00  7.4605198121073650e+00  7.6129109717434087e+00  7.7911995924987121e+00  8.0003942970148501e+00  8.2388748346729415e+00  8.4897488808560464e+00  8.7032653653157350e+00  8.7509714548770070e+00  8.2669587922723640e+00  6.4541009977376680e+00  3.2855119802280104e+00  7.9520630868110154e-01  8.0095007237408766e-01  1.6397963467118706e+00  2.1155130618854816e+00  2.4696712178077069e+00  2.7102304875171868e+00  2.8559876368864443e+00  2.9305753443399851e+00  2.9591046756098467e+00  2.9632987431150819e+00  2.9559365253460768e+00  2.9443152013798035e+00  2.9326250005629642e+00  2.9225547331158426e+00  2.9144877717501587e+00  2.9083193635473292e+00  2.9037723202569721e+00  2.9005246738350245e+00  2.8982700999524713e+00  2.8967454474754391e+00  2.8957394323488002e+00  2.8950909599502084e+00  2.8946825573349084e+00  2.8944322495970951e+00  2.8942857836684110e+00  2.8942102213643923e+00  2.8941892562507601e+00  2.8942198847039857e+00  2.8943093335546854e+00  2.8944708221868494e+00  2.8947172759373903e+00  2.8950535341079950e+00  2.8954690333908104e+00  2.8959326426728182e+00  2.8963894392916547e+00  2.8967648484283139e+00  2.8970042142090202e+00  2.8971780110522092e+00  2.8976085871388051e+00  2.8989208583155452e+00  2.9020172956342765e+00  2.9080840079821266e+00  2.9186959812324647e+00  2.9360018866421651e+00  2.9629351919618907e+00  3.0033981601127757e+00  3.0623629061074600e+00  3.1458317153940971e+00  3.2607521463434694e+00  3.4149519193317368e+00  3.6227850300257312e+00  3.9078296728236142e+00  4.5033081252682265e+00  6.5399252770823830e+00  1.0397215934897079e+00  2.1260876867675895e+00  1.9772555315224505e+00  1.9036172272599174e+00  1.9952049228699458e+00  2.1656759388727553e+00  2.3616199469470120e+00  2.5657818973181215e+00  2.7706919710595042e+00  2.9769737480039544e+00  3.1839732367297469e+00  3.3904139225885213e+00  3.5950252929643920e+00  3.7966185432151867e+00  3.9941039711524917e+00  4.1866260540453455e+00  4.3736745045304897e+00  4.5551067437216108e+00  4.7310933491872218e+00  4.9020172780824423e+00  5.0683543847972423e+00  5.2305605827221147e+00  5.3889905886173022e+00  5.5438607400610289e+00  5.6952399539979135e+00  5.8430359601185797e+00  5.9869657727810965e+00  6.1265353767380333e+00  6.2610618489698435e+00  6.3897528410968469e+00  6.5118493724886619e+00  6.6268407001074916e+00  6.7347500273756573e+00  6.8364602882852230e+00  6.9340163023289847e+00  7.0308369958144068e+00  7.1318161893040575e+00  7.2433256667893602e+00  7.3730173814872666e+00  7.5289497840493720e+00  7.7170034638379610e+00  7.9347738825677059e+00  8.1578341868385458e+00  8.3014043996776046e+00  8.0819291426941593e+00  6.8787091486632956e+00  4.8915572114940833e+00  3.0634613459471156e+00  1.1569495947592312e+00  1.1528221317641691e+00  1.9266931069569657e+00  2.3448421505019290e+00  2.6291880814607782e+00  2.7962840429448077e+00  2.8710869626502715e+00  2.8842160312359990e+00  2.8652753193636840e+00  2.8336124487743097e+00  2.8002009074189691e+00  2.7707740873160813e+00  2.7474145778740482e+00  2.7299902004750018e+00  2.7175653902239905e+00  2.7090918907723265e+00  2.7036094562359003e+00  2.7003039121913699e+00  2.6985213725722241e+00  2.6977604025886537e+00  2.6976522112662882e+00  2.6979362360260128e+00  2.6984359384246712e+00  2.6990374694587009e+00  2.6996724857948688e+00  2.7003054751374371e+00  2.7009249233871819e+00  2.7015363939496626e+00  2.7021546886093311e+00  2.7027926605527006e+00  2.7034462712504572e+00  2.7040779649325404e+00  2.7046010992955671e+00  2.7048679352156171e+00  2.7046752226850610e+00  2.7038343627059462e+00  2.7023501419378979e+00  2.7006344916919978e+00  2.6995883526235613e+00  2.7005203413020147e+00  2.7050635412660662e+00  2.7152401523215706e+00  2.7336816983937688e+00  2.7639252625916479e+00  2.8107005713771187e+00  2.8801315320774767e+00  2.9797635932360191e+00  3.1184245631100702e+00  3.3057852107742201e+00  3.5569504811310848e+00  3.8929801004807416e+00  4.5431909610043881e+00  6.6222413189587952e+00  9.5963100537502366e-01  2.0468342330699598e+00  1.8829383035121632e+00  1.8128382101670999e+00  1.8979935373179668e+00  2.0502872361880162e+00  2.2404100084883369e+00  2.4401263572882006e+00  2.6430104270488739e+00  2.8450909091394072e+00  3.0478941150190604e+00  3.2507269343792657e+00  3.4520669784303584e+00  3.6505021244694076e+00  3.8448931471287189e+00  4.0343637606614688e+00  4.2183656645493004e+00  4.3967155413324965e+00  4.5695547405115082e+00  4.7372471911878167e+00  4.9002487572435367e+00  5.0589817736445255e+00  5.2137463074461214e+00  5.3646849418009097e+00  5.5117851222975753e+00  5.6548791392736719e+00  5.7936198456836818e+00  5.9274534652694451e+00  6.0556294567739872e+00  6.1772654180809727e+00  6.2914652213384681e+00  6.3974917583230955e+00  6.4949938803472236e+00  6.5842656146173244e+00  6.6664935428443295e+00  6.7439614317146166e+00  6.8202448310981900e+00  6.9004820806785174e+00  6.9917053485804734e+00  7.1028490919830531e+00  7.2434926346289945e+00  7.4196333281441289e+00  7.6226263351896568e+00  7.7951113391626494e+00  7.6992713203729553e+00  6.7721765846907855e+00  5.2834216190335290e+00  4.4582962571658484e+00  3.2682716926195594e+00  1.5809524347544470e+00  1.5027676953072600e+00  2.1712395768063657e+00  2.5067529276649729e+00  2.7132814056549979e+00  2.8114523908246811e+00  2.8299536638254219e+00  2.8021925662641785e+00  2.7533361305480888e+00  2.7001067286525928e+00  2.6519265652610029e+00  2.6126047440409557e+00  2.5826256989045491e+00  2.5608048765272402e+00  2.5455249414723600e+00  2.5352643684950111e+00  2.5287210831801525e+00  2.5248343954757808e+00  2.5227762642134661e+00  2.5219254115550349e+00  2.5218328367678904e+00  2.5221857699060695e+00  2.5227745630092566e+00  2.5234648948994090e+00  2.5241762852525844e+00  2.5248666230620054e+00  2.5255207046238661e+00  2.5261390752708421e+00  2.5267230266141616e+00  2.5272532764800646e+00  2.5276626629353136e+00  2.5278046488157058e+00  2.5274216861050571e+00  2.5261377460086454e+00  2.5235476347988248e+00  2.5194717083867624e+00  2.5142815349304222e+00  2.5090575489060942e+00  2.5054912958641955e+00  2.5057074797334686e+00  2.5122260758153532e+00  2.5281415749357623e+00  2.5574571465953535e+00  2.6054641691950575e+00  2.6790657528167876e+00  2.7869372357516817e+00  2.9394849495643909e+00  3.1483252377370827e+00  3.4302903064145727e+00  3.8065303109048783e+00  4.5033871004185659e+00  6.6370517813046277e+00  8.8710377559450748e-01  1.9674506292471046e+00  1.8034779016623010e+00  1.7173190729343213e+00  1.8053395871080764e+00  1.9507390672139149e+00  2.1225344172114711e+00  2.3161913486786467e+00  2.5142415915396477e+00  2.7138215862297383e+00  2.9119104287254967e+00  3.1100169503040664e+00  3.3072109016380757e+00  3.5018264150328551e+00  3.6924932089892915e+00  3.8782772778168679e+00  4.0586034525012531e+00  4.2332466532357795e+00  4.4023055159393127e+00  4.5661139549342646e+00  4.7251088953090443e+00  4.8796936285775443e+00  5.0301366767000060e+00  5.1765295266342575e+00  5.3187915551215568e+00  5.4566821309376374e+00  5.5897907949827346e+00  5.7175157934804259e+00  5.8390670730911367e+00  5.9535182773185165e+00  6.0599089373301460e+00  6.1573907070844838e+00  6.2454105889155640e+00  6.3239115443924971e+00  6.3935175779310160e+00  6.4556951190508167e+00  6.5129624250704117e+00  6.5692912073379448e+00  6.6307597801969251e+00  6.7061643387111731e+00  6.8067421859902764e+00  6.9434143034925029e+00  7.1178719532219308e+00  7.2918184501349081e+00  7.2593059597479419e+00  6.4842210419885289e+00  5.1934647472959661e+00  4.7020634553916336e+00  4.4213696817302077e+00  3.5131012177098380e+00  1.9799945899157279e+00  1.8032815045260697e+00  2.3531278575115899e+00  2.6039419305770646e+00  2.7387459286210554e+00  2.7820983960000962e+00  2.7640305627155182e+00  2.7114991125111567e+00  2.6458270949023901e+00  2.5817068251675384e+00  2.5264246388355596e+00  2.4822285418482783e+00  2.4487078469833463e+00  2.4242058159885302e+00  2.4068389931888428e+00  2.3949114566569096e+00  2.3869976724870363e+00  2.3819488280724928e+00  2.3788744654438401e+00  2.3771090385662075e+00  2.3761715600967657e+00  2.3757252188197935e+00  2.3755412860394620e+00  2.3754695401083175e+00  2.3754157760531687e+00  2.3753250310529190e+00  2.3751669394387194e+00  2.3749181804907513e+00  2.3745374048604493e+00  2.3739297657143945e+00  2.3728991810126874e+00  2.3710906218848748e+00  2.3679546878981546e+00  2.3628344839141162e+00  2.3552771919404170e+00  2.3454702479025662e+00  2.3345036043754024e+00  2.3243121532826447e+00  2.3174584990669800e+00  2.3169994376465981e+00  2.3265664128956973e+00  2.3506562693240869e+00  2.3950443654516422e+00  2.4672044817325607e+00  2.5766086816689651e+00  2.7348375712267678e+00  2.9551248000616361e+00  3.2560790697383459e+00  3.6598583284940824e+00  4.3924082530517650e+00  6.5723883506944825e+00  8.2313320542989743e-01  1.8959431103541602e+00  1.7242567733588330e+00  1.6370050713100552e+00  1.7083248297139755e+00  1.8561980762534298e+00  2.0207899577659951e+00  2.1960421274698390e+00  2.3878332850472952e+00  2.5822223361213417e+00  2.7773755592667455e+00  2.9703055497565147e+00  3.1623029120513020e+00  3.3522990131573733e+00  3.5386645198800952e+00  3.7202241562580278e+00  3.8963357255371589e+00  4.0667411626669656e+00  4.2314941503173609e+00  4.3908846109754949e+00  4.5453192814761234e+00  4.6951830804645907e+00  4.8407268229107956e+00  4.9820129082824494e+00  5.1189138269440901e+00  5.2511277034911084e+00  5.3781815544647484e+00  5.4994250916061755e+00  5.6140397763792524e+00  5.7210834496400214e+00  5.8195779618863268e+00  5.9086365519861435e+00  5.9876168151601963e+00  6.0562743298000017e+00  6.1148888824177936e+00  6.1643702944507721e+00  6.2064437112191335e+00  6.2441041291982051e+00  6.2824645659512566e+00  6.3297883089629652e+00  6.3979599298784349e+00  6.5009279536034796e+00  6.6476511111783552e+00  6.8143494890593654e+00  6.8205841031752534e+00  6.1482279087033254e+00  4.9572426168737600e+00  4.5321237307818949e+00  4.5018551398355049e+00  4.4222873419858733e+00  3.7204043404463589e+00  2.3062838633787894e+00  2.0308022741167235e+00  2.4676120180607959e+00  2.6419612520124027e+00  2.7190503077415009e+00  2.7265874125904501e+00  2.6865004728525959e+00  2.6208379937860413e+00  2.5481426046773197e+00  2.4803417888992048e+00  2.4228357434315404e+00  2.3769476359487403e+00  2.3418816062816972e+00  2.3158550859035847e+00  2.2969597401201192e+00  2.2835026312102253e+00  2.2740674282356053e+00  2.2675145612341172e+00  2.2629599213958285e+00  2.2597397950870701e+00  2.2573699697790741e+00  2.2555056687775434e+00  2.2539063864933944e+00  2.2524073958470052e+00  2.2508975243111649e+00  2.2493004713102192e+00  2.2475549656325429e+00  2.2455881275089222e+00  2.2432759651412915e+00  2.2403836324405773e+00  2.2364823447330644e+00  2.2308785445484927e+00  2.2226792350467095e+00  2.2111314710545393e+00  2.1961418463173623e+00  2.1786376157733973e+00  2.1605815240590389e+00  2.1447835138800193e+00  2.1347424848085863e+00  2.1346472919373500e+00  2.1495705789173121e+00  2.1858296041697463e+00  2.2514332434969742e+00  2.3564836436672576e+00  2.5134346194716759e+00  2.7367506992534678e+00  3.0464940811252816e+00  3.4658779400928528e+00  4.2213636202220508e+00  6.4366451011737942e+00  7.6259178570538677e-01  1.8332226494041035e+00  1.6532668562565651e+00  1.5574420034037324e+00  1.6271920667113928e+00  1.7581777594852241e+00  1.9251563200231241e+00  2.0931082990398115e+00  2.2665875785011633e+00  2.4546799911710084e+00  2.6444565061933933e+00  2.8342039431350750e+00  3.0207653994499353e+00  3.2053066166146058e+00  3.3867965745721786e+00  3.5637931017131432e+00  3.7354013571420488e+00  3.9012870498081913e+00  4.0614656743560618e+00  4.2161801899843088e+00  4.3657931529801228e+00  4.5106599756481058e+00  4.6510142933864485e+00  4.7869026405345210e+00  4.9181714602832134e+00  5.0444771321672093e+00  5.1652937998435515e+00  5.2799213677129346e+00  5.3875105745196317e+00  5.4871136005658547e+00  5.5777628709642544e+00  5.6585805759711265e+00  5.7289076237067222e+00  5.7884208556807391e+00  5.8372074041137090e+00  5.8758121987044705e+00  5.9053800731033732e+00  5.9281192365007902e+00  5.9482673886717974e+00  5.9734300597282628e+00  6.0156492955174414e+00  6.0908755755092079e+00  6.2136148114082879e+00  6.3721129373813667e+00  6.4084543578349127e+00  5.8205929746698963e+00  4.6989678669110511e+00  4.2666335492154692e+00  4.2474916776017633e+00  4.3532175904081907e+00  4.4026987622969864e+00  3.8560441413939008e+00  2.5442931060914273e+00  2.1837315745317345e+00  2.5193876046523411e+00  2.6316381688088191e+00  2.6698527579352964e+00  2.6548612176409625e+00  2.6029673867708074e+00  2.5329138048759710e+00  2.4596719789294101e+00  2.3926131456939022e+00  2.3358720099344703e+00  2.2903084568355894e+00  2.2550259294139465e+00  2.2283010257234572e+00  2.2083335838706177e+00  2.1935353044208621e+00  2.1825767450773057e+00  2.1743848921006643e+00  2.1681221071491086e+00  2.1631527365786249e+00  2.1590049635427020e+00  2.1553341034921796e+00  2.1518906979775689e+00  2.1484940624592443e+00  2.1450095955388040e+00  2.1413262558022144e+00  2.1373290026346421e+00  2.1328583384778592e+00  2.1276441631212863e+00  2.1212032281711575e+00  2.1127345424425936e+00  2.1011546029654697e+00  2.0854414116821971e+00  2.0652010062961241e+00  2.0410922902419344e+00  2.0149042917572033e+00  1.9894324470386111e+00  1.9683752785137905e+00  1.9563419446940620e+00  1.9589804674021862e+00  1.9832366763598486e+00  2.0377377319734427e+00  2.1332161383710333e+00  2.2828677146895493e+00  2.5021139716666920e+00  2.8121006700927573e+00  3.2367817490930730e+00  4.0031859550860238e+00  6.2409503990514805e+00  7.0199728998691990e-01  1.7741038599479038e+00  1.5911348408154766e+00  1.4862560159483942e+00  1.5471497553419944e+00  1.6765637032436200e+00  1.8267680742529031e+00  1.9972160099207819e+00  2.1634485702012425e+00  2.3334607140696235e+00  2.5170526407177682e+00  2.7014056166606832e+00  2.8847248775626197e+00  3.0637719214399795e+00  3.2397577533453163e+00  3.4118366092110723e+00  3.5788378868243238e+00  3.7401635063082437e+00  3.8957446752295262e+00  4.0457825401331053e+00  4.1905922592128659e+00  4.3304861882543797e+0