<?xml version="1.0"?>
<VTKFile type="UnstructuredGrid"  version="0.1"  >
<UnstructuredGrid>
<Piece  NumberOfPoints="10201" NumberOfCells="20000">
<Points>
<DataArray  type="Float64"  NumberOfComponents="3"  format="ascii">0 0 0  0.2 0 0  0.4 0 0  0.6 0 0  0.8 0 0  1 0 0  1.2 0 0  1.4 0 0  1.6 0 0  1.8 0 0  2 0 0  2.2 0 0  2.4 0 0  2.6 0 0  2.8 0 0  3 0 0  3.2 0 0  3.4 0 0  3.6 0 0  3.8 0 0  4 0 0  4.2 0 0  4.4 0 0  4.6 0 0  4.8 0 0  5 0 0  5.2 0 0  5.4 0 0  5.6 0 0  5.8 0 0  6 0 0  6.2 0 0  6.4 0 0  6.6 0 0  6.8 0 0  7 0 0  7.2 0 0  7.4 0 0  7.6 0 0  7.8 0 0  8 0 0  8.199999999999999 0 0  8.4 0 0  8.6 0 0  8.800000000000001 0 0  9 0 0  9.199999999999999 0 0  9.4 0 0  9.6 0 0  9.800000000000001 0 0  10 0 0  10.2 0 0  10.4 0 0  10.6 0 0  10.8 0 0  11 0 0  11.2 0 0  11.4 0 0  11.6 0 0  11.8 0 0  12 0 0  12.2 0 0  12.4 0 0  12.6 0 0  12.8 0 0  13 0 0  13.2 0 0  13.4 0 0  13.6 0 0  13.8 0 0  14 0 0  14.2 0 0  14.4 0 0  14.6 0 0  14.8 0 0  15 0 0  15.2 0 0  15.4 0 0  15.6 0 0  15.8 0 0  16 0 0  16.2 0 0  16.4 0 0  16.6 0 0  16.8 0 0  17 0 0  17.2 0 0  17.4 0 0  17.6 0 0  17.8 0 0  18 0 0  18.2 0 0  18.4 0 0  18.6 0 0  18.8 0 0  19 0 0  19.2 0 0  19.4 0 0  19.6 0 0  19.8 0 0  20 0 0  0 0.2 0  0.2 0.2 0  0.4 0.2 0  0.6 0.2 0  0.8 0.2 0  1 0.2 0  1.2 0.2 0  1.4 0.2 0  1.6 0.2 0  1.8 0.2 0  2 0.2 0  2.2 0.2 0  2.4 0.2 0  2.6 0.2 0  2.8 0.2 0  3 0.2 0  3.2 0.2 0  3.4 0.2 0  3.6 0.2 0  3.8 0.2 0  4 0.2 0  4.2 0.2 0  4.4 0.2 0  4.6 0.2 0  4.8 0.2 0  5 0.2 0  5.2 0.2 0  5.4 0.2 0  5.6 0.2 0  5.8 0.2 0  6 0.2 0  6.2 0.2 0  6.4 0.2 0  6.6 0.2 0  6.8 0.2 0  7 0.2 0  7.2 0.2 0  7.4 0.2 0  7.6 0.2 0  7.8 0.2 0  8 0.2 0  8.199999999999999 0.2 0  8.4 0.2 0  8.6 0.2 0  8.800000000000001 0.2 0  9 0.2 0  9.199999999999999 0.2 0  9.4 0.2 0  9.6 0.2 0  9.800000000000001 0.2 0  10 0.2 0  10.2 0.2 0  10.4 0.2 0  10.6 0.2 0  10.8 0.2 0  11 0.2 0  11.2 0.2 0  11.4 0.2 0  11.6 0.2 0  11.8 0.2 0  12 0.2 0  12.2 0.2 0  12.4 0.2 0  12.6 0.2 0  12.8 0.2 0  13 0.2 0  13.2 0.2 0  13.4 0.2 0  13.6 0.2 0  13.8 0.2 0  14 0.2 0  14.2 0.2 0  14.4 0.2 0  14.6 0.2 0  14.8 0.2 0  15 0.2 0  15.2 0.2 0  15.4 0.2 0  15.6 0.2 0  15.8 0.2 0  16 0.2 0  16.2 0.2 0  16.4 0.2 0  16.6 0.2 0  16.8 0.2 0  17 0.2 0  17.2 0.2 0  17.4 0.2 0  17.6 0.2 0  17.8 0.2 0  18 0.2 0  18.2 0.2 0  18.4 0.2 0  18.6 0.2 0  18.8 0.2 0  19 0.2 0  19.2 0.2 0  19.4 0.2 0  19.6 0.2 0  19.8 0.2 0  20 0.2 0  0 0.4 0  0.2 0.4 0  0.4 0.4 0  0.6 0.4 0  0.8 0.4 0  1 0.4 0  1.2 0.4 0  1.4 0.4 0  1.6 0.4 0  1.8 0.4 0  2 0.4 0  2.2 0.4 0  2.4 0.4 0  2.6 0.4 0  2.8 0.4 0  3 0.4 0  3.2 0.4 0  3.4 0.4 0  3.6 0.4 0  3.8 0.4 0  4 0.4 0  4.2 0.4 0  4.4 0.4 0  4.6 0.4 0  4.8 0.4 0  5 0.4 0  5.2 0.4 0  5.4 0.4 0  5.6 0.4 0  5.8 0.4 0  6 0.4 0  6.2 0.4 0  6.4 0.4 0  6.6 0.4 0  6.8 0.4 0  7 0.4 0  7.2 0.4 0  7.4 0.4 0  7.6 0.4 0  7.8 0.4 0  8 0.4 0  8.199999999999999 0.4 0  8.4 0.4 0  8.6 0.4 0  8.800000000000001 0.4 0  9 0.4 0  9.199999999999999 0.4 0  9.4 0.4 0  9.6 0.4 0  9.800000000000001 0.4 0  10 0.4 0  10.2 0.4 0  10.4 0.4 0  10.6 0.4 0  10.8 0.4 0  11 0.4 0  11.2 0.4 0  11.4 0.4 0  11.6 0.4 0  11.8 0.4 0  12 0.4 0  12.2 0.4 0  12.4 0.4 0  12.6 0.4 0  12.8 0.4 0  13 0.4 0  13.2 0.4 0  13.4 0.4 0  13.6 0.4 0  13.8 0.4 0  14 0.4 0  14.2 0.4 0  14.4 0.4 0  14.6 0.4 0  14.8 0.4 0  15 0.4 0  15.2 0.4 0  15.4 0.4 0  15.6 0.4 0  15.8 0.4 0  16 0.4 0  16.2 0.4 0  16.4 0.4 0  16.6 0.4 0  16.8 0.4 0  17 0.4 0  17.2 0.4 0  17.4 0.4 0  17.6 0.4 0  17.8 0.4 0  18 0.4 0  18.2 0.4 0  18.4 0.4 0  18.6 0.4 0  18.8 0.4 0  19 0.4 0  19.2 0.4 0  19.4 0.4 0  19.6 0.4 0  19.8 0.4 0  20 0.4 0  0 0.6 0  0.2 0.6 0  0.4 0.6 0  0.6 0.6 0  0.8 0.6 0  1 0.6 0  1.2 0.6 0  1.4 0.6 0  1.6 0.6 0  1.8 0.6 0  2 0.6 0  2.2 0.6 0  2.4 0.6 0  2.6 0.6 0  2.8 0.6 0  3 0.6 0  3.2 0.6 0  3.4 0.6 0  3.6 0.6 0  3.8 0.6 0  4 0.6 0  4.2 0.6 0  4.4 0.6 0  4.6 0.6 0  4.8 0.6 0  5 0.6 0  5.2 0.6 0  5.4 0.6 0  5.6 0.6 0  5.8 0.6 0  6 0.6 0  6.2 0.6 0  6.4 0.6 0  6.6 0.6 0  6.8 0.6 0  7 0.6 0  7.2 0.6 0  7.4 0.6 0  7.6 0.6 0  7.8 0.6 0  8 0.6 0  8.199999999999999 0.6 0  8.4 0.6 0  8.6 0.6 0  8.800000000000001 0.6 0  9 0.6 0  9.199999999999999 0.6 0  9.4 0.6 0  9.6 0.6 0  9.800000000000001 0.6 0  10 0.6 0  10.2 0.6 0  10.4 0.6 0  10.6 0.6 0  10.8 0.6 0  11 0.6 0  11.2 0.6 0  11.4 0.6 0  11.6 0.6 0  11.8 0.6 0  12 0.6 0  12.2 0.6 0  12.4 0.6 0  12.6 0.6 0  12.8 0.6 0  13 0.6 0  13.2 0.6 0  13.4 0.6 0  13.6 0.6 0  13.8 0.6 0  14 0.6 0  14.2 0.6 0  14.4 0.6 0  14.6 0.6 0  14.8 0.6 0  15 0.6 0  15.2 0.6 0  15.4 0.6 0  15.6 0.6 0  15.8 0.6 0  16 0.6 0  16.2 0.6 0  16.4 0.6 0  16.6 0.6 0  16.8 0.6 0  17 0.6 0  17.2 0.6 0  17.4 0.6 0  17.6 0.6 0  17.8 0.6 0  18 0.6 0  18.2 0.6 0  18.4 0.6 0  18.6 0.6 0  18.8 0.6 0  19 0.6 0  19.2 0.6 0  19.4 0.6 0  19.6 0.6 0  19.8 0.6 0  20 0.6 0  0 0.8 0  0.2 0.8 0  0.4 0.8 0  0.6 0.8 0  0.8 0.8 0  1 0.8 0  1.2 0.8 0  1.4 0.8 0  1.6 0.8 0  1.8 0.8 0  2 0.8 0  2.2 0.8 0  2.4 0.8 0  2.6 0.8 0  2.8 0.8 0  3 0.8 0  3.2 0.8 0  3.4 0.8 0  3.6 0.8 0  3.8 0.8 0  4 0.8 0  4.2 0.8 0  4.4 0.8 0  4.6 0.8 0  4.8 0.8 0  5 0.8 0  5.2 0.8 0  5.4 0.8 0  5.6 0.8 0  5.8 0.8 0  6 0.8 0  6.2 0.8 0  6.4 0.8 0  6.6 0.8 0  6.8 0.8 0  7 0.8 0  7.2 0.8 0  7.4 0.8 0  7.6 0.8 0  7.8 0.8 0  8 0.8 0  8.199999999999999 0.8 0  8.4 0.8 0  8.6 0.8 0  8.800000000000001 0.8 0  9 0.8 0  9.199999999999999 0.8 0  9.4 0.8 0  9.6 0.8 0  9.800000000000001 0.8 0  10 0.8 0  10.2 0.8 0  10.4 0.8 0  10.6 0.8 0  10.8 0.8 0  11 0.8 0  11.2 0.8 0  11.4 0.8 0  11.6 0.8 0  11.8 0.8 0  12 0.8 0  12.2 0.8 0  12.4 0.8 0  12.6 0.8 0  12.8 0.8 0  13 0.8 0  13.2 0.8 0  13.4 0.8 0  13.6 0.8 0  13.8 0.8 0  14 0.8 0  14.2 0.8 0  14.4 0.8 0  14.6 0.8 0  14.8 0.8 0  15 0.8 0  15.2 0.8 0  15.4 0.8 0  15.6 0.8 0  15.8 0.8 0  16 0.8 0  16.2 0.8 0  16.4 0.8 0  16.6 0.8 0  16.8 0.8 0  17 0.8 0  17.2 0.8 0  17.4 0.8 0  17.6 0.8 0  17.8 0.8 0  18 0.8 0  18.2 0.8 0  18.4 0.8 0  18.6 0.8 0  18.8 0.8 0  19 0.8 0  19.2 0.8 0  19.4 0.8 0  19.6 0.8 0  19.8 0.8 0  20 0.8 0  0 1 0  0.2 1 0  0.4 1 0  0.6 1 0  0.8 1 0  1 1 0  1.2 1 0  1.4 1 0  1.6 1 0  1.8 1 0  2 1 0  2.2 1 0  2.4 1 0  2.6 1 0  2.8 1 0  3 1 0  3.2 1 0  3.4 1 0  3.6 1 0  3.8 1 0  4 1 0  4.2 1 0  4.4 1 0  4.6 1 0  4.8 1 0  5 1 0  5.2 1 0  5.4 1 0  5.6 1 0  5.8 1 0  6 1 0  6.2 1 0  6.4 1 0  6.6 1 0  6.8 1 0  7 1 0  7.2 1 0  7.4 1 0  7.6 1 0  7.8 1 0  8 1 0  8.199999999999999 1 0  8.4 1 0  8.6 1 0  8.800000000000001 1 0  9 1 0  9.199999999999999 1 0  9.4 1 0  9.6 1 0  9.800000000000001 1 0  10 1 0  10.2 1 0  10.4 1 0  10.6 1 0  10.8 1 0  11 1 0  11.2 1 0  11.4 1 0  11.6 1 0  11.8 1 0  12 1 0  12.2 1 0  12.4 1 0  12.6 1 0  12.8 1 0  13 1 0  13.2 1 0  13.4 1 0  13.6 1 0  13.8 1 0  14 1 0  14.2 1 0  14.4 1 0  14.6 1 0  14.8 1 0  15 1 0  15.2 1 0  15.4 1 0  15.6 1 0  15.8 1 0  16 1 0  16.2 1 0  16.4 1 0  16.6 1 0  16.8 1 0  17 1 0  17.2 1 0  17.4 1 0  17.6 1 0  17.8 1 0  18 1 0  18.2 1 0  18.4 1 0  18.6 1 0  18.8 1 0  19 1 0  19.2 1 0  19.4 1 0  19.6 1 0  19.8 1 0  20 1 0  0 1.2 0  0.2 1.2 0  0.4 1.2 0  0.6 1.2 0  0.8 1.2 0  1 1.2 0  1.2 1.2 0  1.4 1.2 0  1.6 1.2 0  1.8 1.2 0  2 1.2 0  2.2 1.2 0  2.4 1.2 0  2.6 1.2 0  2.8 1.2 0  3 1.2 0  3.2 1.2 0  3.4 1.2 0  3.6 1.2 0  3.8 1.2 0  4 1.2 0  4.2 1.2 0  4.4 1.2 0  4.6 1.2 0  4.8 1.2 0  5 1.2 0  5.2 1.2 0  5.4 1.2 0  5.6 1.2 0  5.8 1.2 0  6 1.2 0  6.2 1.2 0  6.4 1.2 0  6.6 1.2 0  6.8 1.2 0  7 1.2 0  7.2 1.2 0  7.4 1.2 0  7.6 1.2 0  7.8 1.2 0  8 1.2 0  8.199999999999999 1.2 0  8.4 1.2 0  8.6 1.2 0  8.800000000000001 1.2 0  9 1.2 0  9.199999999999999 1.2 0  9.4 1.2 0  9.6 1.2 0  9.800000000000001 1.2 0  10 1.2 0  10.2 1.2 0  10.4 1.2 0  10.6 1.2 0  10.8 1.2 0  11 1.2 0  11.2 1.2 0  11.4 1.2 0  11.6 1.2 0  11.8 1.2 0  12 1.2 0  12.2 1.2 0  12.4 1.2 0  12.6 1.2 0  12.8 1.2 0  13 1.2 0  13.2 1.2 0  13.4 1.2 0  13.6 1.2 0  13.8 1.2 0  14 1.2 0  14.2 1.2 0  14.4 1.2 0  14.6 1.2 0  14.8 1.2 0  15 1.2 0  15.2 1.2 0  15.4 1.2 0  15.6 1.2 0  15.8 1.2 0  16 1.2 0  16.2 1.2 0  16.4 1.2 0  16.6 1.2 0  16.8 1.2 0  17 1.2 0  17.2 1.2 0  17.4 1.2 0  17.6 1.2 0  17.8 1.2 0  18 1.2 0  18.2 1.2 0  18.4 1.2 0  18.6 1.2 0  18.8 1.2 0  19 1.2 0  19.2 1.2 0  19.4 1.2 0  19.6 1.2 0  19.8 1.2 0  20 1.2 0  0 1.4 0  0.2 1.4 0  0.4 1.4 0  0.6 1.4 0  0.8 1.4 0  1 1.4 0  1.2 1.4 0  1.4 1.4 0  1.6 1.4 0  1.8 1.4 0  2 1.4 0  2.2 1.4 0  2.4 1.4 0  2.6 1.4 0  2.8 1.4 0  3 1.4 0  3.2 1.4 0  3.4 1.4 0  3.6 1.4 0  3.8 1.4 0  4 1.4 0  4.2 1.4 0  4.4 1.4 0  4.6 1.4 0  4.8 1.4 0  5 1.4 0  5.2 1.4 0  5.4 1.4 0  5.6 1.4 0  5.8 1.4 0  6 1.4 0  6.2 1.4 0  6.4 1.4 0  6.6 1.4 0  6.8 1.4 0  7 1.4 0  7.2 1.4 0  7.4 1.4 0  7.6 1.4 0  7.8 1.4 0  8 1.4 0  8.199999999999999 1.4 0  8.4 1.4 0  8.6 1.4 0  8.800000000000001 1.4 0  9 1.4 0  9.199999999999999 1.4 0  9.4 1.4 0  9.6 1.4 0  9.800000000000001 1.4 0  10 1.4 0  10.2 1.4 0  10.4 1.4 0  10.6 1.4 0  10.8 1.4 0  11 1.4 0  11.2 1.4 0  11.4 1.4 0  11.6 1.4 0  11.8 1.4 0  12 1.4 0  12.2 1.4 0  12.4 1.4 0  12.6 1.4 0  12.8 1.4 0  13 1.4 0  13.2 1.4 0  13.4 1.4 0  13.6 1.4 0  13.8 1.4 0  14 1.4 0  14.2 1.4 0  14.4 1.4 0  14.6 1.4 0  14.8 1.4 0  15 1.4 0  15.2 1.4 0  15.4 1.4 0  15.6 1.4 0  15.8 1.4 0  16 1.4 0  16.2 1.4 0  16.4 1.4 0  16.6 1.4 0  16.8 1.4 0  17 1.4 0  17.2 1.4 0  17.4 1.4 0  17.6 1.4 0  17.8 1.4 0  18 1.4 0  18.2 1.4 0  18.4 1.4 0  18.6 1.4 0  18.8 1.4 0  19 1.4 0  19.2 1.4 0  19.4 1.4 0  19.6 1.4 0  19.8 1.4 0  20 1.4 0  0 1.6 0  0.2 1.6 0  0.4 1.6 0  0.6 1.6 0  0.8 1.6 0  1 1.6 0  1.2 1.6 0  1.4 1.6 0  1.6 1.6 0  1.8 1.6 0  2 1.6 0  2.2 1.6 0  2.4 1.6 0  2.6 1.6 0  2.8 1.6 0  3 1.6 0  3.2 1.6 0  3.4 1.6 0  3.6 1.6 0  3.8 1.6 0  4 1.6 0  4.2 1.6 0  4.4 1.6 0  4.6 1.6 0  4.8 1.6 0  5 1.6 0  5.2 1.6 0  5.4 1.6 0  5.6 1.6 0  5.8 1.6 0  6 1.6 0  6.2 1.6 0  6.4 1.6 0  6.6 1.6 0  6.8 1.6 0  7 1.6 0  7.2 1.6 0  7.4 1.6 0  7.6 1.6 0  7.8 1.6 0  8 1.6 0  8.199999999999999 1.6 0  8.4 1.6 0  8.6 1.6 0  8.800000000000001 1.6 0  9 1.6 0  9.199999999999999 1.6 0  9.4 1.6 0  9.6 1.6 0  9.800000000000001 1.6 0  10 1.6 0  10.2 1.6 0  10.4 1.6 0  10.6 1.6 0  10.8 1.6 0  11 1.6 0  11.2 1.6 0  11.4 1.6 0  11.6 1.6 0  11.8 1.6 0  12 1.6 0  12.2 1.6 0  12.4 1.6 0  12.6 1.6 0  12.8 1.6 0  13 1.6 0  13.2
[...]
<PointData  Scalars="f_9"> 
<DataArray  type="Float64"  Name="f_9"  format="ascii">-1.8803005559903965e+00  -1.7745310063963373e+00  -1.6864467549367861e+00  -1.6038101977782933e+00  -1.5250310706456125e+00  -1.4475202847968385e+00  -1.3733533400459668e+00  -1.3024637844601918e+00  -1.2342233609361313e+00  -1.1682603813340322e+00  -1.1044190871073940e+00  -1.0425819046933382e+00  -9.8264166040794110e-01  -9.2452141881111594e-01  -8.6817984220330247e-01  -8.1360199323752480e-01  -7.6079126055188839e-01  -7.0977254475887208e-01  -6.6060847714985738e-01  -6.1342381058414119e-01  -5.6842876029521594e-01  -5.2593203055103888e-01  -4.8634121616976922e-01  -4.5015895791591970e-01  -4.1798664111172956e-01  -3.9054055809306348e-01  -3.6868251066512558e-01  -3.5347507298213932e-01  -3.4628011074436738e-01  -3.4891995858938962e-01  -3.6391409448265283e-01  -3.9478720747556029e-01  -4.4641146189393083e-01  -5.2529237443479315e-01  -6.3963300447212401e-01  -7.9891846936733113e-01  -1.0126606030860266e+00  -1.2878408982460587e+00  -1.6244845079820911e+00  -2.0086194900851062e+00  -2.4013174112990923e+00  -2.7202689479852604e+00  -2.7992600343473995e+00  -2.2619394548315501e+00  -3.9091919639128808e-01  2.2393031922386566e+00  2.6400826501292638e+00  2.1342844076357257e+00  1.9852251863158710e+00  1.9103513158792458e+00  1.8827174730677225e+00  1.8777915757869845e+00  1.8803443080111095e+00  1.8825516381938321e+00  1.8816030653334808e+00  1.8778125429080263e+00  1.8726515117933662e+00  1.8671730859418509e+00  1.8620737125944296e+00  1.8577197751526675e+00  1.8541900220211149e+00  1.8514139710329203e+00  1.8492687982250291e+00  1.8476264133303011e+00  1.8463726327074073e+00  1.8454131091998041e+00  1.8446733505545310e+00  1.8440963136234767e+00  1.8436392433856932e+00  1.8432705375883363e+00  1.8429669676725944e+00  1.8427113749167496e+00  1.8424908845794830e+00  1.8422956534407278e+00  1.8421181150963468e+00  1.8419525877096603e+00  1.8417950010501305e+00  1.8416424779460578e+00  1.8414926639776141e+00  1.8413429189614998e+00  1.8411890746574979e+00  1.8410219040003368e+00  1.8408196145046913e+00  1.8405412009121604e+00  1.8401299670365232e+00  1.8395232116104860e+00  1.8386496642841752e+00  1.8374070562888716e+00  1.8356277056418226e+00  1.8330364699900343e+00  1.8291944342876760e+00  1.8234174230798670e+00  1.8146652669068728e+00  1.8014212948684047e+00  1.7816550746437334e+00  1.7531349900756930e+00  1.7146095598553022e+00  1.6724548773462538e+00  1.6381542665238642e+00  1.8890452375894768e+00  3.4720168197181307e+00  -1.2031271156807908e+00  -1.0925063013762075e+00  -9.8689804711294227e-01  -8.9907895988117170e-01  -8.1676744696707437e-01  -7.3838302450960203e-01  -6.6135106767978447e-01  -5.8775778006058776e-01  -5.1754511112979340e-01  -4.5009164421863002e-01  -3.8503205177567457e-01  -3.2221743779688583e-01  -2.6153801364826518e-01  -2.0289534045051061e-01  -1.4622202886045277e-01  -9.1486901864325149e-02  -3.8685568854362563e-02  1.2167913960977611e-02  6.1038174583378645e-02  1.0785269530541559e-01  1.5247790393307659e-01  1.9469642668725332e-01  2.3419477726183907e-01  2.7056379398722802e-01  3.0330343899101453e-01  3.3182015891194150e-01  3.5541188343039443e-01  3.7323871860977909e-01  3.8426922660202129e-01  3.8718393294425907e-01  3.8021705786674626e-01  3.6092420260035146e-01  3.2588078921970276e-01  2.7034912222226531e-01  1.8800500913435453e-01  7.0888811855754727e-02  -9.0162914244914530e-02  -3.0424895612258496e-01  -5.7784302352180450e-01  -9.1038412138836133e-01  -1.2872850581344211e+00  -1.6690702915548070e+00  -1.9731094887561571e+00  -2.0333449337930674e+00  -1.4754513947904484e+00  4.0317242291860400e-01  3.0114005732349285e+00  3.4378460787195273e+00  3.0076620593892809e+00  2.9633738123103228e+00  3.0350528301521025e+00  3.1869476976714002e+00  3.3782691242930030e+00  3.5752098172156268e+00  3.7546629855385012e+00  3.9048113297942537e+00  4.0232749897197353e+00  4.1129661177048185e+00  4.1786516177702397e+00  4.2255627100381252e+00  4.2584431149885900e+00  4.2811306142007135e+00  4.2965705450445562e+00  4.3069542892594441e+00  4.3138724844513403e+00  4.3184543679025111e+00  4.3214853777261810e+00  4.3235016891787268e+00  4.3248633428752212e+00  4.3258090290913485e+00  4.3264960248353459e+00  4.3270286612383444e+00  4.3274783371094792e+00  4.3278976254574708e+00  4.3283304271294343e+00  4.3288193765381360e+00  4.3294109041939528e+00  4.3301577828178921e+00  4.3311189250224542e+00  4.3323567332979804e+00  4.3339330430709859e+00  4.3359051433312592e+00  4.3383249817195892e+00  4.3412519583556559e+00  4.3447991232034422e+00  4.3492215750487597e+00  4.3550210259938149e+00  4.3630308666559046e+00  4.3744834262505767e+00  4.3910927115485121e+00  4.4151782180390722e+00  4.4498306120242255e+00  4.4990979226788026e+00  4.5681473772863868e+00  4.6633150037972779e+00  4.7918824871862968e+00  4.9613053038788806e+00  5.1773342371259368e+00  5.4441893327849602e+00  5.7494045231887965e+00  6.3156279631629637e+00  -2.1738312104181534e+00  -2.0679719640703067e+00  -1.9574208499249401e+00  -1.8524212598121046e+00  -1.7653707079143208e+00  -1.6839160151666588e+00  -1.6065229747114587e+00  -1.5306612205403316e+00  -1.4584450883110203e+00  -1.3898350560503687e+00  -1.3242223119727623e+00  -1.2612522096401939e+00  -1.2007877613875066e+00  -1.1427335949232031e+00  -1.0870082202872222e+00  -1.0335632477883971e+00  -9.8238795592451866e-01  -9.3349928123957648e-01  -8.8693290491061094e-01  -8.4274551029842160e-01  -8.0102989885675657e-01  -7.6193801688840757e-01  -7.2570259913410495e-01  -6.9264811996135689e-01  -6.6318872711385379e-01  -6.3782155956797371e-01  -6.1712730082896006e-01  -6.0178296035072087e-01  -5.9258885460168975e-01  -5.9051979347904848e-01  -5.9681848991651631e-01  -6.1314950021687431e-01  -6.4182480672401832e-01  -6.8609460012969758e-01  -7.5046341992928500e-01  -8.4093885592141504e-01  -9.6504698517365872e-01  -1.1313594520804504e+00  -1.3481802805799585e+00  -1.6209457984107760e+00  -1.9477926130879653e+00  -2.3125716963874701e+00  -2.6740088247663447e+00  -2.9474095500768360e+00  -2.9651917209473257e+00  -2.3679049036734567e+00  -5.2447572749574622e-01  2.0015637277051721e+00  2.4984006657409052e+00  2.1506682790082614e+00  2.1300408453547801e+00  2.1874441946409999e+00  2.2966561682371762e+00  2.4292105790929313e+00  2.5606451382181885e+00  2.6739439949187589e+00  2.7610729463984311e+00  2.8215319538893566e+00  2.8587242800181425e+00  2.8774288204186433e+00  2.8826630899652463e+00  2.8787823028718620e+00  2.8691628701764524e+00  2.8562860614612191e+00  2.8419045424970575e+00  2.8272031852413084e+00  2.8129393890075383e+00  2.7995600783398431e+00  2.7872952262050177e+00  2.7762296199968817e+00  2.7663558259285019e+00  2.7576117962304334e+00  2.7499065589334304e+00  2.7431371906292816e+00  2.7371998214950333e+00  2.7319966004502407e+00  2.7274393064752509e+00  2.7234489437657374e+00  2.7199497917337085e+00  2.7168564339470689e+00  2.7140532325805364e+00  2.7113675940177053e+00  2.7085432220424814e+00  2.7052312274592967e+00  2.7010303199619252e+00  2.6955972291121997e+00  2.6888002166440446e+00  2.6808476710983715e+00  2.6723523532906448e+00  2.6643636535265647e+00  2.6584336428523319e+00  2.6567626060370086e+00  2.6624384022388248e+00  2.6797607695425323e+00  2.7146097396099340e+00  2.7747374748784135e+00  2.8696941153537674e+00  3.0098089086490911e+00  3.2031872966231161e+00  3.4542955214763333e+00  3.7487531861416343e+00  -1.7150667400765307e+00  -1.5945260544032129e+00  -1.4886291850836788e+00  -1.3787548161967595e+00  -1.2750101138395211e+00  -1.1893496430751596e+00  -1.1094053075747252e+00  -1.0337408832631336e+00  -9.5989683127837033e-01  -8.9002731943797853e-01  -8.2411588307342820e-01  -7.6156763328893762e-01  -7.0204008972716869e-01  -6.4541173654254858e-01  -5.9160753536318256e-01  -5.4057067800173286e-01  -4.9228064896872464e-01  -4.4675667264580893e-01  -4.0404677405112022e-01  -3.6421806573830717e-01  -3.2735820694758183e-01  -2.9358958698074711e-01  -2.6309116517384651e-01  -2.3611857685430121e-01  -2.1301312673642550e-01  -1.9419731945075547e-01  -1.8016538266479706e-01  -1.7148078945438089e-01  -1.6878599904555489e-01  -1.7282659313404561e-01  -1.8449985553661399e-01  -2.0494548522143763e-01  -2.3569576753804544e-01  -2.7889435848073946e-01  -3.3757407676415213e-01  -4.1594951618552595e-01  -5.1962659217567297e-01  -6.5555831283890975e-01  -8.3148835152450340e-01  -1.0545299668619068e+00  -1.3284354236030385e+00  -1.6490077403823189e+00  -1.9968942782001320e+00  -2.3263088534514140e+00  -2.5466288001705508e+00  -2.4969271493466905e+00  -1.8928669191030114e+00  -1.9609893955335331e-01  2.1887461006078328e+00  2.7726522638220241e+00  2.5057462433504165e+00  2.5124033587323380e+00  2.5771357071374603e+00  2.6839766611327378e+00  2.8134633317784665e+00  2.9458928208742678e+00  3.0663123248301321e+00  3.1666717535916855e+00  3.2450984075304641e+00  3.3034040779560994e+00  3.3450321826460545e+00  3.3739262806982993e+00  3.3936426314736967e+00  3.4070336835630775e+00  3.4162830325214277e+00  3.4230094619756675e+00  3.4283734672635471e+00  3.4331765127615630e+00  3.4379488387586083e+00  3.4430230352555671e+00  3.4485926565683118e+00  3.4547568165765017e+00  3.4615526296121084e+00  3.4689778078278679e+00  3.4770059098835699e+00  3.4855965451748880e+00  3.4947019806751856e+00  3.5042700308297365e+00  3.5142413023740553e+00  3.5245375143643258e+00  3.5350371813241503e+00  3.5455362393438992e+00  3.5556976688364164e+00  3.5650112857566469e+00  3.5728066554051603e+00  3.5783585752194078e+00  3.5810738726686164e+00  3.5806855505861797e+00  3.5773714402981782e+00  3.5717770814136940e+00  3.5649980976348590e+00  3.5585996802669331e+00  3.5547255647800919e+00  3.5563206452624541e+00  3.5674719034713327e+00  3.5938333154296895e+00  3.6429830886235597e+00  3.7242983442591728e+00  3.8475867171265965e+00  4.0199063738343259e+00  4.2471129410440129e+00  -2.2441835552630280e+00  -2.1239084243279551e+00  -2.0032425333440305e+00  -1.8981292158423397e+00  -1.7898070561456103e+00  -1.6881420479760130e+00  -1.6047238222113740e+00  -1.5272410901108981e+00  -1.4543940034264251e+00  -1.3838070555653781e+00  -1.3176756148928925e+00  -1.2560037170043736e+00  -1.1982076059638218e+00  -1.1439563631845622e+00  -1.0931462938255354e+00  -1.0457274017783953e+00  -1.0016736287689365e+00  -9.6099895856983297e-01  -9.2375928101545079e-01  -8.9004031910823800e-01  -8.5994703769544456e-01  -8.3360424265529687e-01  -8.1116971152796635e-01  -7.9285461074429275e-01  -7.7894165939970772e-01  -7.6979155551197631e-01  -7.6583530861872728e-01  -7.6756109366343106e-01  -7.7550798211652061e-01  -7.9027226453253607e-01  -8.1252906358395427e-01  -8.4307960554079386e-01  -8.8294156303931748e-01  -9.3349834837644330e-01  -9.9671323501994702e-01  -1.0753930106850529e+00  -1.1734485914854595e+00  -1.2960438661279354e+00  -1.4494495361179669e+00  -1.6403302650631062e+00  -1.8740980518868835e+00  -2.1518627123451575e+00  -2.4653606471816358e+00  -2.7888746646861797e+00  -3.0669657168141597e+00  -3.2077663182298246e+00  -3.1116694904169351e+00  -2.5992147633059992e+00  -1.1298381901870098e+00  1.0889903232594389e+00  1.7396015496475024e+00  1.5396956331144835e+00  1.5712050719353996e+00  1.6501413679226982e+00  1.7670161626401255e+00  1.9080336388326486e+00  2.0566905195290190e+00  2.1992436215197730e+00  2.3271327125732171e+00  2.4372912227754178e+00  2.5302286953181632e+00  2.6081990305752649e+00  2.6741531581117206e+00  2.7309003825396658e+00  2.7807872879882831e+00  2.8256853951110967e+00  2.8670418579847272e+00  2.9059415592312248e+00  2.9431725957791879e+00  2.9792893351131857e+00  3.0146683579309026e+00  3.0495549035594460e+00  3.0840993272338020e+00  3.1183842445699459e+00  3.1524437898809814e+00  3.1862769204678236e+00  3.2198567224766701e+00  3.2531367932197410e+00  3.2860538454695631e+00  3.3185230443827116e+00  3.3504198808363217e+00  3.3815410353740241e+00  3.4115414370888799e+00  3.4398635564501827e+00  3.4657046905308233e+00  3.4880774969560693e+00  3.5059787974796217e+00  3.5186163726383350e+00  3.5256078938334334e+00  3.5270846283783643e+00  3.5236944279434557e+00  3.5165624689608772e+00  3.5072877026421119e+00  3.4980337305152243e+00  3.4917504707844587e+00  3.4925383847080229e+00  3.5060947385962034e+00  3.5399774105614648e+00  3.6031121142947171e+00  3.7042724530671713e+00  3.8519797433221976e+00  -2.6138461388207173e+00  -2.4859084356807299e+00  -2.3653020906156841e+00  -2.2453286325778201e+00  -2.1417849337627994e+00  -2.0356234478799347e+00  -1.9365637501613386e+00  -1.8559240226951659e+00  -1.7814986739703540e+00  -1.7121421848768408e+00  -1.6455618473037330e+00  -1.5839865877718808e+00  -1.5274338203899032e+00  -1.4753263572286461e+00  -1.4273435457191237e+00  -1.3834010454616914e+00  -1.3434770793952158e+00  -1.3075800311664698e+00  -1.2757619078725244e+00  -1.2481183604551698e+00  -1.2247754638960200e+00  -1.2058783170892444e+00  -1.1915908252583789e+00  -1.1821077218466010e+00  -1.1776733408749760e+00  -1.1785973934500558e+00  -1.1852581550349794e+00  -1.1980907901224718e+00  -1.2175697820642448e+00  -1.2441984754470654e+00  -1.2785123539791834e+00  -1.3210997445192314e+00  -1.3726509818222725e+00  -1.4340530830536309e+00  -1.5065434296368385e+00  -1.5919227776997258e+00  -1.6928024532049688e+00  -1.8128181985070388e+00  -1.9566814972222861e+00  -2.1298591067840671e+00  -2.3375759768663622e+00  -2.5827247176830568e+00  -2.8621047473759083e+00  -3.1600734426942032e+00  -3.4386520115822967e+00  -3.6348280592831861e+00  -3.7055191937090148e+00  -3.6442337573957904e+00  -3.2907755371683391e+00  -2.0674218616749891e+00  -3.6082863019562886e-02  6.5158547464848793e-01  5.0316278720668584e-01  5.5445184116233115e-01  6.4756056968743281e-01  7.7588910919101350e-01  9.2958589815435100e-01  1.0945514950284867e+00  1.2579082610075569e+00  1.4109777092125748e+00  1.5500219714004566e+00  1.6746118003156356e+00  1.7860667605136924e+00  1.8865263884661942e+00  1.9781643437340322e+00  2.0628706275858710e+00  2.1422077496564151e+00  2.2174245952530742e+00  2.2894871012450557e+00  2.3591188474090408e+00  2.4268449058126085e+00  2.4930333637023065e+00  2.5579312937774938e+00  2.6216938387576780e+00  2.6844062971805753e+00  2.7461000122617372e+00  2.8067636143911798e+00  2.8663513968389536e+00  2.9247896506922038e+00  2.9819791166376581e+00  3.0377873579914647e+00  3.0920203236763451e+00  3.1443631572078901e+00  3.1942962387154936e+00  3.2410239503462708e+00  3.2834735221190554e+00  3.3203985848789785e+00  3.3505712763627256e+00  3.3730089657108424e+00  3.3871690384170514e+00  3.3930561647594049e+00  3.3912317011851716e+00  3.3827751910542712e+00  3.3692761368546469e+00  3.3529248103866522e+00  3.3367468070104849e+00  3.3249706606499720e+00  3.3233607331048276e+00  3.3390977543692921e+00  3.3801247119246813e+00  3.4567043388443088e+00  -2.7185719669152300e+00  -2.5819755771041488e+00  -2.4533410859954579e+00  -2.3329101580072149e+00  -2.2138724169009216e+00  -2.1116927989598615e+00  -2.0071488240593629e+00  -1.9099241371459796e+00  -1.8311266158335968e+00  -1.7586776115397411e+00  -1.6915850796202434e+00  -1.6276266291870469e+00  -1.5690517410254812e+00  -1.5158822696721901e+00  -1.4675424920030407e+00  -1.4237199113246266e+00  -1.3843492538009450e+00  -1.3494371779354677e+00  -1.3190262779661515e+00  -1.2932054872489831e+00  -1.2721082321003596e+00  -1.2558982246884389e+00  -1.2447574371549976e+00  -1.2388851724651562e+00  -1.2385089216423044e+00  -1.2439012002594956e+00  -1.2553923869324857e+00  -1.2733699274218255e+00  -1.2982618874694762e+00  -1.3305144735348582e+00  -1.3705776352480969e+00  -1.4189068730487127e+00  -1.4759865092988678e+00  -1.5423863827661115e+00  -1.6188681520364450e+00  -1.7065504908545497e+00  -1.8071240729848022e+00  -1.9230746246790094e+00  -2.0578209565325096e+00  -2.2156024966614778e+00  -2.4008567935031482e+00  -2.6167064061800680e+00  -2.8619909968774495e+00  -3.1258948163386404e+00  -3.3790458037265321e+00  -3.5711933580040158e+00  -3.6777534839238322e+00  -3.7383562414150324e+00  -3.7605312252828562e+00  -3.5649779003328916e+00  -2.5787157290372882e+00  -7.4024298318395576e-01  -3.5698284911749895e-02  -1.4282945624845281e-01  -7.6505629919203177e-02  2.7211815198584566e-02  1.6324669958671145e-01  3.2481682468163914e-01  4.9972434074873101e-01  6.7620744367308649e-01  8.4592940638412151e-01  1.0048459827244491e+00  1.1518887509030880e+00  1.2876836247400920e+00  1.4137318722873951e+00  1.5316804672574462e+00  1.6430196309668350e+00  1.7490227253600865e+00  1.8507367937971697e+00  1.9489917853225500e+00  2.0444229120804756e+00  2.1374994697470466e+00  2.2285544252282534e+00  2.3178113063096011e+00  2.4054066400318885e+00  2.4914073180611283e+00  2.5758232676686466e+00  2.6586167910418514e+00  2.7397103203596123e+00  2.8189929301145518e+00  2.8963216415683215e+00  2.9715069982874316e+00  3.0442690694407721e+00  3.1141606807728004e+00  3.1804821129357834e+00  3.2422332591656735e+00  3.2981392857822724e+00  3.3467569626554572e+00  3.3866495484098897e+00  3.4166036975450420e+00  3.4358373780336979e+00  3.4441353153619132e+00  3.4418850343248253e+00  3.4300549592189009e+00  3.4101971525433434e+00  3.3845506522346178e+00  3.3562704861865247e+00  3.3296697272897156e+00  3.3101592914136702e+00  3.3039619509777385e+00  3.3205303397780983e+00  -2.7838773714045928e+00  -2.6437486871647753e+00  -2.5062572518522166e+00  -2.3774692713085610e+00  -2.2574392284748810e+00  -2.1390248461312167e+00  -2.0374884458567597e+00  -1.9335599364096447e+00  -1.8369559666291404e+00  -1.7586009077422633e+00  -1.6865415523053613e+00  -1.6199253673881560e+00  -1.5565820580083884e+00  -1.4987672792650455e+00  -1.4464985597349189e+00  -1.3991963563078738e+00  -1.3565528023477009e+00  -1.3185186082247446e+00  -1.2851251397947752e+00  -1.2564442050358835e+00  -1.2325952664401221e+00  -1.2137419058266059e+00  -1.2000769145470231e+00  -1.1918098870960006e+00  -1.1891656741588470e+00  -1.1923939236641430e+00  -1.2017835414247695e+00  -1.2176719077984306e+00  -1.2404393175576325e+00  -1.2704871567035059e+00  -1.3082105452075532e+00  -1.3539813250958292e+00  -1.4081517597789914e+00  -1.4710863200749220e+00  -1.5432343662760137e+00  -1.6252577381737914e+00  -1.7182149648022078e+00  -1.8237771102377145e+00  -1.9444060370172236e+00  -2.0833591607637341e+00  -2.2442915175928415e+00  -2.4300966455582547e+00  -2.6404199818020402e+00  -2.8668337200902689e+00  -3.0842842462994664e+00  -3.2478923309480674e+00  -3.3374029576672553e+00  -3.4026312746144534e+00  -3.4937768518023811e+00  -3.5924460497287560e+00  -3.5340381468123492e+00  -2.7619743534668659e+00  -1.1100661078068088e+00  -4.0014187788352912e-01  -4.7157334636139386e-01  -3.9308983496025474e-01  -2.8133404957032199e-01  -1.4060015411955068e-01  2.4647442614003659e-02  2.0410290664581354e-01  3.8737177080355384e-01  5.6669722389625177e-01  7.3797103316918611e-01  8.9972087744934404e-01  1.0520707512583471e+00  1.1960212830869283e+00  1.3327820138262307e+00  1.4634944307611659e+00  1.5891668079886692e+00  1.7106509906635308e+00  1.8286371456371699e+00  1.9436625609210683e+00  2.0561284267521214e+00  2.1663193477241789e+00  2.2744222888659995e+00  2.3805430554721583e+00  2.4847193777815151e+00  2.5869307570477384e+00  2.6871064046095618e+00  2.7851327659906362e+00  2.8808593563613520e+00  2.9740951895197774e+00  3.0645823476285843e+00  3.1519388378435025e+00  3.2355837346346679e+00  3.3146742187005236e+00  3.3880762398660305e+00  3.4543768226226153e+00  3.5119529423184828e+00  3.5591198513913160e+00  3.5943557901691321e+00  3.6165477021583294e+00  3.6251746933543800e+00  3.6203857372570933e+00  3.6030089806320231e+00  3.5745771749892619e+00  3.5374249587260369e+00  3.4947845001625177e+00  3.4506247693445165e+00  3.4094175148037946e+00  3.3789172938057837e+00  -2.9165704330344560e+00  -2.7763919698024204e+00  -2.6352867001688565e+00  -2.4977141424265921e+00  -2.3693356668327521e+00  -2.2497636758468982e+