<?xml version="1.0"?>
<VTKFile type="UnstructuredGrid"  version="0.1"  >
<UnstructuredGrid>
<Piece  NumberOfPoints="5101" NumberOfCells="10000">
<Points>
<DataArray  type="Float64"  NumberOfComponents="3"  format="ascii">0 0 0  0.2 0 0  0.4 0 0  0.6 0 0  0.8 0 0  1 0 0  1.2 0 0  1.4 0 0  1.6 0 0  1.8 0 0  2 0 0  2.2 0 0  2.4 0 0  2.6 0 0  2.8 0 0  3 0 0  3.2 0 0  3.4 0 0  3.6 0 0  3.8 0 0  4 0 0  4.2 0 0  4.4 0 0  4.6 0 0  4.8 0 0  5 0 0  5.2 0 0  5.4 0 0  5.6 0 0  5.8 0 0  6 0 0  6.2 0 0  6.4 0 0  6.6 0 0  6.8 0 0  7 0 0  7.2 0 0  7.4 0 0  7.6 0 0  7.8 0 0  8 0 0  8.199999999999999 0 0  8.4 0 0  8.6 0 0  8.800000000000001 0 0  9 0 0  9.199999999999999 0 0  9.4 0 0  9.6 0 0  9.800000000000001 0 0  10 0 0  0 0.2 0  0.2 0.2 0  0.4 0.2 0  0.6 0.2 0  0.8 0.2 0  1 0.2 0  1.2 0.2 0  1.4 0.2 0  1.6 0.2 0  1.8 0.2 0  2 0.2 0  2.2 0.2 0  2.4 0.2 0  2.6 0.2 0  2.8 0.2 0  3 0.2 0  3.2 0.2 0  3.4 0.2 0  3.6 0.2 0  3.8 0.2 0  4 0.2 0  4.2 0.2 0  4.4 0.2 0  4.6 0.2 0  4.8 0.2 0  5 0.2 0  5.2 0.2 0  5.4 0.2 0  5.6 0.2 0  5.8 0.2 0  6 0.2 0  6.2 0.2 0  6.4 0.2 0  6.6 0.2 0  6.8 0.2 0  7 0.2 0  7.2 0.2 0  7.4 0.2 0  7.6 0.2 0  7.8 0.2 0  8 0.2 0  8.199999999999999 0.2 0  8.4 0.2 0  8.6 0.2 0  8.800000000000001 0.2 0  9 0.2 0  9.199999999999999 0.2 0  9.4 0.2 0  9.6 0.2 0  9.800000000000001 0.2 0  10 0.2 0  0 0.4 0  0.2 0.4 0  0.4 0.4 0  0.6 0.4 0  0.8 0.4 0  1 0.4 0  1.2 0.4 0  1.4 0.4 0  1.6 0.4 0  1.8 0.4 0  2 0.4 0  2.2 0.4 0  2.4 0.4 0  2.6 0.4 0  2.8 0.4 0  3 0.4 0  3.2 0.4 0  3.4 0.4 0  3.6 0.4 0  3.8 0.4 0  4 0.4 0  4.2 0.4 0  4.4 0.4 0  4.6 0.4 0  4.8 0.4 0  5 0.4 0  5.2 0.4 0  5.4 0.4 0  5.6 0.4 0  5.8 0.4 0  6 0.4 0  6.2 0.4 0  6.4 0.4 0  6.6 0.4 0  6.8 0.4 0  7 0.4 0  7.2 0.4 0  7.4 0.4 0  7.6 0.4 0  7.8 0.4 0  8 0.4 0  8.199999999999999 0.4 0  8.4 0.4 0  8.6 0.4 0  8.800000000000001 0.4 0  9 0.4 0  9.199999999999999 0.4 0  9.4 0.4 0  9.6 0.4 0  9.800000000000001 0.4 0  10 0.4 0  0 0.6 0  0.2 0.6 0  0.4 0.6 0  0.6 0.6 0  0.8 0.6 0  1 0.6 0  1.2 0.6 0  1.4 0.6 0  1.6 0.6 0  1.8 0.6 0  2 0.6 0  2.2 0.6 0  2.4 0.6 0  2.6 0.6 0  2.8 0.6 0  3 0.6 0  3.2 0.6 0  3.4 0.6 0  3.6 0.6 0  3.8 0.6 0  4 0.6 0  4.2 0.6 0  4.4 0.6 0  4.6 0.6 0  4.8 0.6 0  5 0.6 0  5.2 0.6 0  5.4 0.6 0  5.6 0.6 0  5.8 0.6 0  6 0.6 0  6.2 0.6 0  6.4 0.6 0  6.6 0.6 0  6.8 0.6 0  7 0.6 0  7.2 0.6 0  7.4 0.6 0  7.6 0.6 0  7.8 0.6 0  8 0.6 0  8.199999999999999 0.6 0  8.4 0.6 0  8.6 0.6 0  8.800000000000001 0.6 0  9 0.6 0  9.199999999999999 0.6 0  9.4 0.6 0  9.6 0.6 0  9.800000000000001 0.6 0  10 0.6 0  0 0.8 0  0.2 0.8 0  0.4 0.8 0  0.6 0.8 0  0.8 0.8 0  1 0.8 0  1.2 0.8 0  1.4 0.8 0  1.6 0.8 0  1.8 0.8 0  2 0.8 0  2.2 0.8 0  2.4 0.8 0  2.6 0.8 0  2.8 0.8 0  3 0.8 0  3.2 0.8 0  3.4 0.8 0  3.6 0.8 0  3.8 0.8 0  4 0.8 0  4.2 0.8 0  4.4 0.8 0  4.6 0.8 0  4.8 0.8 0  5 0.8 0  5.2 0.8 0  5.4 0.8 0  5.6 0.8 0  5.8 0.8 0  6 0.8 0  6.2 0.8 0  6.4 0.8 0  6.6 0.8 0  6.8 0.8 0  7 0.8 0  7.2 0.8 0  7.4 0.8 0  7.6 0.8 0  7.8 0.8 0  8 0.8 0  8.199999999999999 0.8 0  8.4 0.8 0  8.6 0.8 0  8.800000000000001 0.8 0  9 0.8 0  9.199999999999999 0.8 0  9.4 0.8 0  9.6 0.8 0  9.800000000000001 0.8 0  10 0.8 0  0 1 0  0.2 1 0  0.4 1 0  0.6 1 0  0.8 1 0  1 1 0  1.2 1 0  1.4 1 0  1.6 1 0  1.8 1 0  2 1 0  2.2 1 0  2.4 1 0  2.6 1 0  2.8 1 0  3 1 0  3.2 1 0  3.4 1 0  3.6 1 0  3.8 1 0  4 1 0  4.2 1 0  4.4 1 0  4.6 1 0  4.8 1 0  5 1 0  5.2 1 0  5.4 1 0  5.6 1 0  5.8 1 0  6 1 0  6.2 1 0  6.4 1 0  6.6 1 0  6.8 1 0  7 1 0  7.2 1 0  7.4 1 0  7.6 1 0  7.8 1 0  8 1 0  8.199999999999999 1 0  8.4 1 0  8.6 1 0  8.800000000000001 1 0  9 1 0  9.199999999999999 1 0  9.4 1 0  9.6 1 0  9.800000000000001 1 0  10 1 0  0 1.2 0  0.2 1.2 0  0.4 1.2 0  0.6 1.2 0  0.8 1.2 0  1 1.2 0  1.2 1.2 0  1.4 1.2 0  1.6 1.2 0  1.8 1.2 0  2 1.2 0  2.2 1.2 0  2.4 1.2 0  2.6 1.2 0  2.8 1.2 0  3 1.2 0  3.2 1.2 0  3.4 1.2 0  3.6 1.2 0  3.8 1.2 0  4 1.2 0  4.2 1.2 0  4.4 1.2 0  4.6 1.2 0  4.8 1.2 0  5 1.2 0  5.2 1.2 0  5.4 1.2 0  5.6 1.2 0  5.8 1.2 0  6 1.2 0  6.2 1.2 0  6.4 1.2 0  6.6 1.2 0  6.8 1.2 0  7 1.2 0  7.2 1.2 0  7.4 1.2 0  7.6 1.2 0  7.8 1.2 0  8 1.2 0  8.199999999999999 1.2 0  8.4 1.2 0  8.6 1.2 0  8.800000000000001 1.2 0  9 1.2 0  9.199999999999999 1.2 0  9.4 1.2 0  9.6 1.2 0  9.800000000000001 1.2 0  10 1.2 0  0 1.4 0  0.2 1.4 0  0.4 1.4 0  0.6 1.4 0  0.8 1.4 0  1 1.4 0  1.2 1.4 0  1.4 1.4 0  1.6 1.4 0  1.8 1.4 0  2 1.4 0  2.2 1.4 0  2.4 1.4 0  2.6 1.4 0  2.8 1.4 0  3 1.4 0  3.2 1.4 0  3.4 1.4 0  3.6 1.4 0  3.8 1.4 0  4 1.4 0  4.2 1.4 0  4.4 1.4 0  4.6 1.4 0  4.8 1.4 0  5 1.4 0  5.2 1.4 0  5.4 1.4 0  5.6 1.4 0  5.8 1.4 0  6 1.4 0  6.2 1.4 0  6.4 1.4 0  6.6 1.4 0  6.8 1.4 0  7 1.4 0  7.2 1.4 0  7.4 1.4 0  7.6 1.4 0  7.8 1.4 0  8 1.4 0  8.199999999999999 1.4 0  8.4 1.4 0  8.6 1.4 0  8.800000000000001 1.4 0  9 1.4 0  9.199999999999999 1.4 0  9.4 1.4 0  9.6 1.4 0  9.800000000000001 1.4 0  10 1.4 0  0 1.6 0  0.2 1.6 0  0.4 1.6 0  0.6 1.6 0  0.8 1.6 0  1 1.6 0  1.2 1.6 0  1.4 1.6 0  1.6 1.6 0  1.8 1.6 0  2 1.6 0  2.2 1.6 0  2.4 1.6 0  2.6 1.6 0  2.8 1.6 0  3 1.6 0  3.2 1.6 0  3.4 1.6 0  3.6 1.6 0  3.8 1.6 0  4 1.6 0  4.2 1.6 0  4.4 1.6 0  4.6 1.6 0  4.8 1.6 0  5 1.6 0  5.2 1.6 0  5.4 1.6 0  5.6 1.6 0  5.8 1.6 0  6 1.6 0  6.2 1.6 0  6.4 1.6 0  6.6 1.6 0  6.8 1.6 0  7 1.6 0  7.2 1.6 0  7.4 1.6 0  7.6 1.6 0  7.8 1.6 0  8 1.6 0  8.199999999999999 1.6 0  8.4 1.6 0  8.6 1.6 0  8.800000000000001 1.6 0  9 1.6 0  9.199999999999999 1.6 0  9.4 1.6 0  9.6 1.6 0  9.800000000000001 1.6 0  10 1.6 0  0 1.8 0  0.2 1.8 0  0.4 1.8 0  0.6 1.8 0  0.8 1.8 0  1 1.8 0  1.2 1.8 0  1.4 1.8 0  1.6 1.8 0  1.8 1.8 0  2 1.8 0  2.2 1.8 0  2.4 1.8 0  2.6 1.8 0  2.8 1.8 0  3 1.8 0  3.2 1.8 0  3.4 1.8 0  3.6 1.8 0  3.8 1.8 0  4 1.8 0  4.2 1.8 0  4.4 1.8 0  4.6 1.8 0  4.8 1.8 0  5 1.8 0  5.2 1.8 0  5.4 1.8 0  5.6 1.8 0  5.8 1.8 0  6 1.8 0  6.2 1.8 0  6.4 1.8 0  6.6 1.8 0  6.8 1.8 0  7 1.8 0  7.2 1.8 0  7.4 1.8 0  7.6 1.8 0  7.8 1.8 0  8 1.8 0  8.199999999999999 1.8 0  8.4 1.8 0  8.6 1.8 0  8.800000000000001 1.8 0  9 1.8 0  9.199999999999999 1.8 0  9.4 1.8 0  9.6 1.8 0  9.800000000000001 1.8 0  10 1.8 0  0 2 0  0.2 2 0  0.4 2 0  0.6 2 0  0.8 2 0  1 2 0  1.2 2 0  1.4 2 0  1.6 2 0  1.8 2 0  2 2 0  2.2 2 0  2.4 2 0  2.6 2 0  2.8 2 0  3 2 0  3.2 2 0  3.4 2 0  3.6 2 0  3.8 2 0  4 2 0  4.2 2 0  4.4 2 0  4.6 2 0  4.8 2 0  5 2 0  5.2 2 0  5.4 2 0  5.6 2 0  5.8 2 0  6 2 0  6.2 2 0  6.4 2 0  6.6 2 0  6.8 2 0  7 2 0  7.2 2 0  7.4 2 0  7.6 2 0  7.8 2 0  8 2 0  8.199999999999999 2 0  8.4 2 0  8.6 2 0  8.800000000000001 2 0  9 2 0  9.199999999999999 2 0  9.4 2 0  9.6 2 0  9.800000000000001 2 0  10 2 0  0 2.2 0  0.2 2.2 0  0.4 2.2 0  0.6 2.2 0  0.8 2.2 0  1 2.2 0  1.2 2.2 0  1.4 2.2 0  1.6 2.2 0  1.8 2.2 0  2 2.2 0  2.2 2.2 0  2.4 2.2 0  2.6 2.2 0  2.8 2.2 0  3 2.2 0  3.2 2.2 0  3.4 2.2 0  3.6 2.2 0  3.8 2.2 0  4 2.2 0  4.2 2.2 0  4.4 2.2 0  4.6 2.2 0  4.8 2.2 0  5 2.2 0  5.2 2.2 0  5.4 2.2 0  5.6 2.2 0  5.8 2.2 0  6 2.2 0  6.2 2.2 0  6.4 2.2 0  6.6 2.2 0  6.8 2.2 0  7 2.2 0  7.2 2.2 0  7.4 2.2 0  7.6 2.2 0  7.8 2.2 0  8 2.2 0  8.199999999999999 2.2 0  8.4 2.2 0  8.6 2.2 0  8.800000000000001 2.2 0  9 2.2 0  9.199999999999999 2.2 0  9.4 2.2 0  9.6 2.2 0  9.800000000000001 2.2 0  10 2.2 0  0 2.4 0  0.2 2.4 0  0.4 2.4 0  0.6 2.4 0  0.8 2.4 0  1 2.4 0  1.2 2.4 0  1.4 2.4 0  1.6 2.4 0  1.8 2.4 0  2 2.4 0  2.2 2.4 0  2.4 2.4 0  2.6 2.4 0  2.8 2.4 0  3 2.4 0  3.2 2.4 0  3.4 2.4 0  3.6 2.4 0  3.8 2.4 0  4 2.4 0  4.2 2.4 0  4.4 2.4 0  4.6 2.4 0  4.8 2.4 0  5 2.4 0  5.2 2.4 0  5.4 2.4 0  5.6 2.4 0  5.8 2.4 0  6 2.4 0  6.2 2.4 0  6.4 2.4 0  6.6 2.4 0  6.8 2.4 0  7 2.4 0  7.2 2.4 0  7.4 2.4 0  7.6 2.4 0  7.8 2.4 0  8 2.4 0  8.199999999999999 2.4 0  8.4 2.4 0  8.6 2.4 0  8.800000000000001 2.4 0  9 2.4 0  9.199999999999999 2.4 0  9.4 2.4 0  9.6 2.4 0  9.800000000000001 2.4 0  10 2.4 0  0 2.6 0  0.2 2.6 0  0.4 2.6 0  0.6 2.6 0  0.8 2.6 0  1 2.6 0  1.2 2.6 0  1.4 2.6 0  1.6 2.6 0  1.8 2.6 0  2 2.6 0  2.2 2.6 0  2.4 2.6 0  2.6 2.6 0  2.8 2.6 0  3 2.6 0  3.2 2.6 0  3.4 2.6 0  3.6 2.6 0  3.8 2.6 0  4 2.6 0  4.2 2.6 0  4.4 2.6 0  4.6 2.6 0  4.8 2.6 0  5 2.6 0  5.2 2.6 0  5.4 2.6 0  5.6 2.6 0  5.8 2.6 0  6 2.6 0  6.2 2.6 0  6.4 2.6 0  6.6 2.6 0  6.8 2.6 0  7 2.6 0  7.2 2.6 0  7.4 2.6 0  7.6 2.6 0  7.8 2.6 0  8 2.6 0  8.199999999999999 2.6 0  8.4 2.6 0  8.6 2.6 0  8.800000000000001 2.6 0  9 2.6 0  9.199999999999999 2.6 0  9.4 2.6 0  9.6 2.6 0  9.800000000000001 2.6 0  10 2.6 0  0 2.8 0  0.2 2.8 0  0.4 2.8 0  0.6 2.8 0  0.8 2.8 0  1 2.8 0  1.2 2.8 0  1.4 2.8 0  1.6 2.8 0  1.8 2.8 0  2 2.8 0  2.2 2.8 0  2.4 2.8 0  2.6 2.8 0  2.8 2.8 0  3 2.8 0  3.2 2.8 0  3.4 2.8 0  3.6 2.8 0  3.8 2.8 0  4 2.8 0  4.2 2.8 0  4.4 2.8 0  4.6 2.8 0  4.8 2.8 0  5 2.8 0  5.2 2.8 0  5.4 2.8 0  5.6 2.8 0  5.8 2.8 0  6 2.8 0  6.2 2.8 0  6.4 2.8 0  6.6 2.8 0  6.8 2.8 0  7 2.8 0  7.2 2.8 0  7.4 2.8 0  7.6 2.8 0  7.8 2.8 0  8 2.8 0  8.199999999999999 2.8 0  8.4 2.8 0  8.6 2.8 0  8.800000000000001 2.8 0  9 2.8 0  9.199999999999999 2.8 0  9.4 2.8 0  9.6 2.8 0  9.800000000000001 2.8 0  10 2.8 0  0 3 0  0.2 3 0  0.4 3 0  0.6 3 0  0.8 3 0  1 3 0  1.2 3 0  1.4 3 0  1.6 3 0  1.8 3 0  2 3 0  2.2 3 0  2.4 3 0  2.6 3 0  2.8 3 0  3 3 0  3.2 3 0  3.4 3 0  3.6 3 0  3.8 3 0  4 3 0  4.2 3 0  4.4 3 0  4.6 3 0  4.8 3 0  5 3 0  5.2 3 0  5.4 3 0  5.6 3 0  5.8 3 0  6 3 0  6.2 3 0  6.4 3 0  6.6 3 0  6.8 3 0  7 3 0  7.2 3 0  7.4 3 0  7.6 3 0  7.8 3 0  8 3 0  8.199999999999999 3 0  8.4 3 0  8.6 3 0  8.800000000000001 3 0  9 3 0  9.199999999999999 3 0  9.4 3 0  9.6 3 0  9.800000000000001 3 0  10 3 0  0 3.2 0  0.2 3.2 0  0.4 3.2 0  0.6 3.2 0  0.8 3.2 0  1 3.2 0  1.2 3.2 0  1.4 3.2 0  1.6 3.2 0  1.8 3.2 0  2 3.2 0  2.2 3.2 0  2.4 3.2 0  2.6 3.2 0  2.8 3.2 0  3 3.2 0  3.2 3.2 0  3.4 3.2 0  3.6 3.2 0  3.8 3.2 0  4 3.2 0  4.2 3.2 0  4.4 3.2 0  4.6 3.2 0  4.8 3.2 0  5 3.2 0  5.2 3.2 0  5.4 3.2 0  5.6 3.2 0  5.8 3.2 0  6 3.2 0  6.2 3.2 0  6.4 3.2 0  6.6 3.2 0  6.8 3.2 0  7 3.2 0  7.2 3.2 0  7.4 3.2 0  7.6 3.2 0  7.8 3.2 0  8 3.2 0  8.199999999999999 3.2 0  8.4 3.2 0  8.6 3.2 0  8.800000000000001 3.2 0  9 3.2 0  9.199999999999999 3.2 0  9.4 3.2 0  9.6 3.2 0  9.800000000000001 3.2 0  10 3.2 0  0 3.4 0  0.2 3.4 0  0.4 3.4 0  0.6 3.4 0  0.8 3.4 0  1 
[...]
<PointData  Scalars="f_11"> 
<DataArray  type="Float64"  Name="f_11"  format="ascii">3.9252767196917464e+00  3.9262667311803003e+00  3.9222417887933383e+00  3.9147987393995307e+00  3.9039364806968275e+00  3.8896607174994884e+00  3.8719949880346429e+00  3.8510156079867786e+00  3.8268452664987378e+00  3.7996416330912592e+00  3.7695857503147199e+00  3.7368723491950759e+00  3.7017024986722622e+00  3.6642784802140889e+00  3.6248006555648717e+00  3.5834660597032322e+00  3.5404684058643761e+00  3.4959991220905020e+00  3.4502489722576097e+00  3.4034097804410952e+00  3.3556757990827086e+00  3.3072443460913754e+00  3.2583154749864467e+00  3.2090906147735572e+00  3.1597702957072871e+00  3.1105512363954686e+00  3.0616231840398695e+00  3.0131659575914957e+00  2.9653471368845334e+00  2.9183207722299604e+00  2.8722273691829572e+00  2.8271952484505976e+00  2.7833432102192819e+00  2.7407842651240601e+00  2.6996300491780700e+00  2.6599954336159874e+00  2.6220027856453059e+00  2.5857853394175652e+00  2.5514891955180015e+00  2.5192735668045172e+00  2.4893090012092554e+00  2.4617734056397964e+00  2.4368457476745871e+00  2.4146973391419415e+00  2.3954807085855609e+00  2.3793165620185710e+00  2.3662810248461188e+00  2.3563979687796044e+00  2.3496727293569561e+00  2.3461018022200055e+00  2.3472807066833834e+00  3.9242393881003901e+00  3.9252298815811515e+00  3.9221515240139291e+00  3.9151523106372332e+00  3.9046390191256086e+00  3.8906131299452991e+00  3.8731389698038909e+00  3.8523110161661847e+00  3.8282631720328095e+00  3.8011594084067979e+00  3.7711835015139816e+00  3.7385304493059683e+00  3.7033999483147721e+00  3.6659919579261548e+00  3.6265041637501190e+00  3.5851310801243965e+00  3.5420644744516117e+00  3.4974947262906193e+00  3.4516126701170391e+00  3.4046114404617973e+00  3.3566878631723318e+00  3.3080430239947307e+00  3.2588817874851053e+00  3.2094112154586880e+00  3.1598380181298427e+00  3.1103653349336402e+00  3.0611892615274097e+00  3.0124955978225696e+00  2.9644572819786723e+00  2.9172329002526958e+00  2.8709665345524349e+00  2.8257890468224161e+00  2.7818207231629049e+00  2.7391750318244394e+00  2.6979631066398722e+00  2.6582984662934206e+00  2.6203014308113950e+00  2.5841027042914004e+00  2.5498456529154447e+00  2.5176869046186949e+00  2.4877950063568255e+00  2.4603469685539774e+00  2.4355225880524780e+00  2.4134965012528293e+00  2.3944281121413664e+00  2.3784498646040300e+00  2.3656565024935494e+00  2.3561130721624708e+00  2.3498210504218631e+00  2.3471852404610125e+00  2.3483498010708264e+00  3.9281500012563155e+00  3.9281909685108301e+00  3.9251086056563751e+00  3.9183616373554262e+00  3.9080621834160603e+00  3.8942217560037928e+00  3.8769019596998082e+00  3.8562046546717896e+00  3.8322677653566402e+00  3.8052550321504386e+00  3.7753462155300275e+00  3.7427292719743472e+00  3.7075948405672574e+00  3.6701329135623322e+00  3.6305314121352312e+00  3.5889763334987101e+00  3.5456530869693776e+00  3.5007485800415212e+00  3.4544535669480045e+00  3.4069647564569143e+00  3.3584862130139048e+00  3.3092296841307141e+00  3.2594136414225958e+00  3.2092610145921219e+00  3.1589957997483009e+00  3.1088389047689615e+00  3.0590037260038203e+00  3.0096920111495908e+00  2.9610905432091483e+00  2.9133690844024094e+00  2.8666798634501651e+00  2.8211586998219702e+00  2.7769276621166123e+00  2.7340989801015194e+00  2.6927797905410173e+00  2.6530772079294054e+00  2.6151031774146341e+00  2.5789785862851988e+00  2.5448361729169191e+00  2.5128218612152446e+00  2.4830942417523443e+00  2.4558219952806022e+00  2.4311790990572497e+00  2.4093376918763196e+00  2.3904585966341068e+00  2.3746799315000198e+00  2.3621053888854733e+00  2.3527987282502898e+00  2.3467728175168192e+00  2.3441389859037289e+00  2.3443553748159052e+00  3.9354090022146617e+00  3.9350010248174248e+00  3.9316531132572332e+00  3.9248953635229853e+00  3.9146603919288152e+00  3.9009066620056925e+00  3.8836753476636030e+00  3.8630600657988583e+00  3.8391923192771733e+00  3.8122276160894226e+00  3.7823346629042711e+00  3.7496878087502914e+00  3.7144624108031312e+00  3.6768326978221886e+00  3.6369716729588446e+00  3.5950525897506873e+00  3.5512515125927684e+00  3.5057504352075868e+00  3.4587403974488478e+00  3.4104240381700932e+00  3.3610170723754833e+00  3.3107482968315547e+00  3.2598579081555914e+00  3.2085941443551147e+00  3.1572085047094349e+00  3.1059500251029903e+00  3.0550592470925944e+00  3.0047625883014555e+00  2.9552677850040499e+00  2.9067609416108908e+00  2.8594055120440260e+00  2.8133432929286637e+00  2.7686972688756373e+00  2.7255759499354051e+00  2.6840787019950461e+00  2.6443014998125549e+00  2.6063425248541674e+00  2.5703070729808566e+00  2.5363113119990994e+00  2.5044845149601440e+00  2.4749694698789924e+00  2.4479208108859618e+00  2.4235010193687829e+00  2.4018738168669818e+00  2.3831946636056589e+00  2.3675981308106664e+00  2.3551823825710416e+00  2.3459932037868785e+00  2.3399925614460586e+00  2.3371142739890036e+00  2.3368895909075476e+00  3.9460171931422821e+00  3.9452530477270211e+00  3.9416726131324573e+00  3.9348203054190054e+00  3.9245644746864001e+00  3.9108294263729357e+00  3.8936336462506667e+00  3.8730554820251428e+00  3.8492125853575763e+00  3.8222452895489729e+00  3.7923049168460059e+00  3.7595464055518382e+00  3.7241245056695380e+00  3.6861928577922489e+00  3.6459053244077229e+00  3.6034189745428642e+00  3.5588981172895950e+00  3.5125187481444784e+00  3.4644727391285981e+00  3.4149711000875294e+00  3.3642456938585181e+00  3.3125489230002971e+00  3.2601511259067744e+00  3.2073357101650091e+00  3.1543923739595434e+00  3.1016090681830955e+00  3.0492635731722659e+00  2.9976156554345965e+00  2.9469007076721647e+00  2.8973255702571725e+00  2.8490669265976387e+00  2.8022723208315523e+00  2.7570635281403342e+00  2.7135417650513665e+00  2.6717940843216295e+00  2.6319002559983500e+00  2.5939394735293457e+00  2.5579963117359434e+00  2.5241654704732861e+00  2.4925549354906673e+00  2.4632872535324570e+00  2.4364986359038241e+00  2.4123355656206802e+00  2.3909484924003155e+00  2.3724820836952807e+00  2.3570613775905178e+00  2.3447732803755916e+00  2.3356444320035328e+00  2.3296055910162772e+00  2.3265287159003760e+00  2.3259606013979952e+00  3.9599683979703699e+00  3.9589449273235653e+00  3.9551546077175357e+00  3.9481764964316257e+00  3.9378480102240947e+00  3.9240782065164619e+00  3.9068687122454095e+00  3.8862810639109209e+00  3.8624144748451483e+00  3.8353885159652972e+00  3.8053313830416053e+00  3.7723730352352147e+00  3.7366423382919174e+00  3.6982674255695578e+00  3.6573785591627415e+00  3.6141128054473710e+00  3.5686198223922423e+00  3.5210680024072731e+00  3.4716501525559385e+00  3.4205878622217107e+00  3.3681337490589707e+00  3.3145709236120311e+00  3.2602092895667516e+00  3.2053786883793447e+00  3.1504193554545927e+00  3.0956705988643574e+00  3.0414589443116444e+00  2.9880871277762782e+00  2.9358252175643056e+00  2.8849048267173392e+00  2.8355169073941813e+00  2.7878131065921448e+00  2.7419102128754109e+00  2.6978969118130460e+00  2.6558419228921890e+00  2.6158025979491923e+00  2.5778331762083124e+00  2.5419920584068567e+00  2.5083476311843751e+00  2.4769823047739572e+00  2.4479944987663180e+00  2.4214983120408990e+00  2.3976205440896221e+00  2.3764946067027521e+00  2.3582507054628334e+00  2.3430015144845875e+00  2.3308226634114027e+00  2.3217287168361924e+00  2.3156390454692053e+00  2.3123976461603699e+00  2.3115873365185218e+00  3.9772382779923325e+00  3.9760113127511922e+00  3.9720359144794535e+00  3.9649203938115543e+00  3.9544891707329000e+00  3.9406468953098615e+00  3.9233841579876922e+00  3.9027464009568789e+00  3.8788119160197927e+00  3.8516752893964368e+00  3.8214365264067576e+00  3.7881951714665614e+00  3.7520486286263837e+00  3.7130939460989278e+00  3.6714323697383771e+00  3.6271759665476719e+00  3.5804555557650999e+00  3.5314290712479535e+00  3.4802893452752670e+00  3.4272702004603559e+00  3.3726497265780591e+00  3.3167497663843322e+00  3.2599309819938287e+00  3.2025834194494056e+00  3.1451131694284462e+00  3.0879264097244303e+00  3.0314126474111545e+00  2.9759292064750249e+00  2.9217888505595555e+00  2.8692519157332814e+00  2.8185235817472742e+00  2.7697561167677343e+00  2.7230552686560077e+00  2.6784895629959959e+00  2.6361011358864457e+00  2.5959168334329532e+00  2.5579585608987365e+00  2.5222521652874477e+00  2.4888344065349739e+00  2.4577577650498821e+00  2.4290929266692460e+00  2.4029287815739750e+00  2.3793696863843001e+00  2.3585295924287459e+00  2.3405224722487810e+00  2.3254483173487492e+00  2.3133740224438792e+00  2.3043093595979163e+00  2.2981742379812795e+00  2.2948033795075844e+00  2.2938105703377958e+00  3.9977491534409619e+00  3.9963560683858952e+00  3.9922122939138172e+00  3.9849549661305437e+00  3.9744048981958620e+00  3.9604676911155079e+00  3.9431264242924517e+00  3.9224111286946544e+00  3.8983774808486698e+00  3.8710916429591031e+00  3.8406207839987747e+00  3.8070285321934496e+00  3.7703746815808130e+00  3.7307185612528317e+00  3.6881254942373078e+00  3.6426757179221534e+00  3.5944749992218581e+00  3.5436659612395047e+00  3.4904388765290508e+00  3.4350404408070085e+00  3.3777789166028858e+00  3.3190241398851899e+00  3.2592013060376970e+00  3.1987782214200648e+00  3.1382467427644221e+00  3.0781002288455395e+00  3.0188097161839118e+00  2.9608019307558919e+00  2.9044420064622809e+00  2.8500229368869814e+00  2.7977625672937148e+00  2.7478076700494278e+00  2.7002436482786925e+00  2.6551078647227402e+00  2.6124045189137166e+00  2.5721192880321611e+00  2.5342324343227607e+00  2.4987295986454794e+00  2.4656099269728848e+00  2.4348914553428966e+00  2.4066138000294481e+00  2.3808381863874022e+00  2.3576447389794031e+00  2.3371267857077269e+00  2.3193817318304655e+00  2.3044978458994181e+00  2.2925361497476411e+00  2.2835068619538332e+00  2.2773370620091264e+00  2.2738624879408280e+00  2.2727279326819185e+00  4.0213761147192670e+00  4.0198427244058150e+00  4.0155424021740442e+00  4.0081440560831956e+00  3.9974713193716820e+00  3.9834332473657041e+00  3.9660067716788339e+00  3.9452063139988272e+00  3.9210631826089259e+00  3.8936118931734991e+00  3.8628822208312918e+00  3.8288960900538687e+00  3.7916687394063442e+00  3.7512137716878007e+00  3.7075517258918378e+00  3.6607217083249419e+00  3.6107953907278514e+00  3.5578923225312806e+00  3.5021950432415432e+00  3.4439620030122868e+00  3.3835359498127997e+00  3.3213454113019281e+00  3.2578973750026443e+00  3.1937603493293762e+00  3.1295385874856798e+00  3.0658400641486008e+00  3.0032423192459694e+00  2.9422610146656982e+00  2.8833256807757355e+00  2.8267657154377361e+00  2.7728076575819434e+00  2.7215826996793777e+00  2.6731418760818433e+00  2.6274756575702538e+00  2.5845347784145187e+00  2.5442497782794677e+00  2.5065476351554854e+00  2.4713647198877018e+00  2.4386559486135235e+00  2.4084003884816707e+00  2.3806037061096101e+00  2.3552977989697945e+00  2.3325377862637011e+00  2.3123963121047164e+00  2.2949548531666446e+00  2.2802913972656760e+00  2.2684634489951248e+00  2.2594850027294240e+00  2.2532942550124138e+00  2.2497353999627192e+00  2.2484877276490676e+00  4.0479580729907889e+00  4.0463035106543268e+00  4.0418577607046586e+00  4.0343260399648964e+00  4.0235402088345156e+00  4.0094138974152642e+00  3.9919178097886023e+00  3.9710496638865171e+00  3.9468142874463652e+00  3.9192112422959511e+00  3.8882282273677435e+00  3.8538392389397167e+00  3.8160070546500671e+00  3.7746899069108988e+00  3.7298522846753719e+00  3.6814796862104231e+00  3.6295968280780455e+00  3.5742882759736747e+00  3.5157197161379412e+00  3.4541572267005352e+00  3.3899811448017583e+00  3.3236907773519642e+00  3.2558966349683542e+00  3.1872983418771534e+00  3.1186488555931375e+00  3.0507086475883374e+00  2.9841961815633207e+00  2.9197424054157941e+00  2.8578564162403826e+00  2.7989070355483756e+00  2.7431215361466998e+00  2.6905993444068335e+00  2.6413361891668345e+00  2.5952533260512483e+00  2.5522269828114492e+00  2.5121145198517363e+00  2.4747753805505388e+00  2.4400862685877795e+00  2.4079509139286657e+00  2.3783052514395271e+00  2.3511189280166955e+00  2.3263939055920662e+00  2.3041606544800168e+00  2.2844721074590617e+00  2.2673951824374790e+00  2.2529992179769471e+00  2.2413400119898106e+00  2.2324374343812221e+00  2.2262434852782906e+00  2.2226172955820207e+00  2.2212777637024308e+00  4.0773090023565324e+00  4.0755492767987036e+00  4.0709722634328136e+00  4.0633244124638965e+00  4.0524505296862960e+00  4.0382693035202886e+00  4.0207443551034938e+00  3.9998550514733293e+00  3.9755773728985195e+00  3.9478725479516461e+00  3.9166814021887579e+00  3.8819233611305153e+00  3.8434998530434248e+00  3.8013023022542107e+00  3.7552250708159631e+00  3.7051836231610702e+00  3.6511378156113015e+00  3.5931194814478817e+00  3.5312623570206316e+00  3.4658309518747434e+00  3.3972434777417213e+00  3.3260829278962114e+00  3.2530905241971726e+00  3.1791376450308384e+00  3.1051761788472021e+00  3.0321723528968576e+00  2.9610339284079465e+00  2.8925433294893406e+00  2.8273084541872682e+00  2.7657386660128731e+00  2.7080473245399279e+00  2.6542764267323902e+00  2.6043353097893207e+00  2.5580445553893463e+00  2.5151777158766127e+00  2.4754961294621531e+00  2.4387748054270171e+00  2.4048194468930744e+00  2.3734759049661256e+00  2.3446338160448104e+00  2.3182261001931281e+00  2.2942256372571057e+00  2.2726399704951330e+00  2.2535044087154978e+00  2.2368734075259722e+00  2.2228095169274278e+00  2.2113683529885435e+00  2.2025771115688650e+00  2.1964036876094504e+00  2.1927279288471966e+00  2.1913138181896024e+00  4.1092272827919816e+00  4.1073777584752804e+00  4.1026897408407228e+00  4.0949551532101927e+00  4.0840356882160380e+00  4.0698552681662870e+00  4.0523693241979357e+00  4.0315371350796161e+00  4.0073035621242994e+00  3.9795883316611467e+00  3.9482807512285465e+00  3.9132388782069936e+00  3.8742931335240414e+00  3.8312549613128413e+00  3.7839314569002838e+00  3.7321469212529177e+00  3.6757719568844474e+00  3.6147598385998374e+00  3.5491883209756812e+00  3.4793027654869411e+00  3.4055537718526621e+00  3.3286201348373310e+00  3.2494071473767221e+00  3.1690124017857517e+00  3.0886570561606166e+00  3.0095892559199235e+00  2.9329753288353975e+00  2.8597997117767822e+00  2.7907934280819835e+00  2.7264032731315551e+00  2.6668027842255548e+00  2.6119360814555912e+00  2.5615801574592778e+00  2.5154109738839323e+00  2.4730623143494150e+00  2.4341713796807607e+00  2.3984096314317771e+00  2.3655004153939951e+00  2.3352263282313488e+00  2.3074295147896717e+00  2.2820076100127999e+00  2.2589072874772271e+00  2.2381166056117987e+00  2.2196566568334721e+00  2.2035723998244494e+00  2.1899218678751295e+00  2.1787620312172513e+00  2.1701285897702984e+00  2.1640070360039152e+00  2.1603028281891734e+00  2.1588297367788356e+00  4.1435027869863861e+00  4.1415798593427757e+00  4.1368092853185630e+00  4.1290312379766538e+00  4.1181272817974701e+00  4.1040265982094306e+00  4.0866754801990357e+00  4.0660117733554193e+00  4.0419475288923143e+00  4.0143585029606914e+00  3.9830785171444334e+00  3.9478978728827370e+00  3.9085661152230977e+00  3.8648002351809221e+00  3.8162999584690898e+00  3.7627720601122130e+00  3.7039655027031877e+00  3.6397183180503929e+00  3.5700151656908847e+00  3.4950511360938927e+00  3.4152927639212129e+00  3.3315223443131305e+00  3.2448485675179022e+00  3.1566680478437910e+00  3.0685708020303131e+00  2.9821977095747423e+00  2.8990748224650149e+00  2.8204603650359701e+00  2.7472388881193623e+00  2.6798827991050023e+00  2.6184808812643356e+00  2.5628158317663137e+00  2.5124647342840163e+00  2.4668983142567957e+00  2.4255629107443508e+00  2.3879384283623981e+00  2.3535727678504861e+00  2.3220972565197830e+00  2.2932288466626494e+00  2.2667643537231679e+00  2.2425707385318168e+00  2.2205740479377956e+00  2.2007484335308880e+00  2.1831057432263679e+00  2.1676854439147157e+00  2.1545439136820375e+00  2.1437412401804163e+00  2.1353227264900947e+00  2.1292927665957717e+00  2.1255861322404264e+00  2.1240694558160458e+00  4.1799218695030689e+00  4.1779439682001005e+00  4.1731285032311227e+00  4.1653647498235182e+00  4.1545560500816752e+00  4.1406368300301404e+00  4.1235437899369751e+00  4.1031928513656908e+00  4.0794626922290611e+00  4.0521839720310719e+00  4.0211324991307587e+00  3.9860257475198511e+00  3.9465233269131637e+00  3.9022330146111983e+00  3.8527248550185003e+00  3.7975565776966351e+00  3.7363139420362939e+00  3.6686690995935050e+00  3.5944579436939890e+00  3.5137728849911625e+00  3.4270601501553744e+00  3.3352014168951154e+00  3.2395514932131086e+00  3.1419023720850658e+00  3.0443552989596228e+00  2.9491081088048268e+00  2.8581975216007889e+00  2.7732593604139955e+00  2.6953686861715576e+00  2.6249944190952941e+00  2.5620634065199162e+00  2.5060973367565054e+00  2.4563748743893066e+00  2.4120795232034635e+00  2.3724111541174051e+00  2.3366558961600061e+00  2.3042199790538684e+00  2.2746376298292179e+00  2.2475631814108175e+00  2.2227554292549905e+00  2.2000596227946700e+00  2.1793901622979446e+00  2.1607153674751842e+00  2.1440445431895889e+00  2.1294167913030217e+00  2.1168903574657159e+00  2.1065305172412678e+00  2.0983932400488952e+00  2.0925026244243794e+00  2.0888249962418777e+00  2.0872807485052087e+00  4.2182705225148425e+00  4.2162585294739383e+00  4.2114449975929595e+00  4.2037670687915840e+00  4.1931506774055540e+00  4.1795355494049140e+00  4.1628491039973161e+00  4.1429861115386935e+00  4.1197929914956282e+00  4.0930562482688426e+00  4.0624935537344866e+00  4.0277470597111202e+00  3.9883797696767362e+00  3.9438770232147045e+00  3.8936564808972873e+00  3.8370914370012823e+00  3.7735535878717470e+00  3.7024818950590919e+00  3.6234826994419338e+00  3.5364610238595962e+00  3.4417723060188194e+00  3.3403673942784406e+00  3.2338853081935941e+00  3.1246379507905155e+00  3.0154428583698771e+00  2.9093030301815519e+00  2.8089965869872340e+00  2.7166901506768428e+00  2.6336916841008944e+00  2.5604037959034729e+00  2.4964593143733200e+00  2.4409634346658380e+00  2.3927547786131482e+00  2.3506221750873695e+00  2.3134503168654499e+00  2.2802962670134517e+00  2.2504134655334362e+00  2.2232429214488167e+00  2.1983879992936823e+00  2.1755839897325830e+00  2.1546688893178434e+00  2.1355583469447605e+00  2.1182255574132629e+00  2.1026856583734750e+00  2.0889835166054476e+00  2.0771833176967482e+00  2.0673578161249453e+00  2.0595745890684727e+00  2.0538776029556556e+00  2.0502653404978490e+00  2.0487104262685256e+00  4.2583359727585686e+00  4.2563131334203588e+00  4.2515564209921424e+00  4.2440476120542279e+00  4.2337350520132384e+00  4.2205640002508948e+00  4.2044538704819354e+00  4.1852806347185929e+00  4.1628617293119845e+00  4.1369432373479551e+00  4.1071880507748677e+00  4.0731646418754650e+00  4.0343372961871893e+00  3.9900600602838860e+00  3.9395784691418552e+00  3.8820454713935479e+00  3.8165607600159475e+00  3.7422452942200439e+00  3.6583635351735588e+00  3.5645017547551707e+00  3.4607973538178030e+00  3.3481877136525506e+00  3.2286097251192909e+00  3.1050481191247243e+00  2.9813330643501597e+00  2.8616558509302421e+00  2.7498985007954189e+00  2.6489896507450994e+00  2.5605121212701629e+00  2.4846738181708257e+00  2.4205877268431926e+00  2.3667015887308667e+00  2.3212152336005034e+00  2.2823892155981382e+00  2.2487215358206445e+00  2.2190152411524617e+00  2.1923750513138649e+00  2.1681675766616522e+00  2.1459691907409368e+00  2.1255153134328584e+00  2.1066573591255913e+00  2.0893290559460471e+00  2.0735214940166204e+00  2.0592652618449145e+00  2.0466177047297389e+00  2.0356532198902166e+00  2.0264542820736113e+00  2.0191006931088817e+00  2.0136556563451253e+00  2.0101487087335466e+00  2.0086007598261602e+00  4.2999070133005297e+00  4.2978984254256254e+00  4.2932594671433986e+00  4.2860116038524998e+00  4.2761245818697731e+00  4.2635496849913048e+00  4.2482006503341792e+00  4.2299387501373813e+00  4.2085581953577096e+00  4.1837717645996468e+00  4.1551954318954039e+00  4.1223314601593994e+00  4.0845505034789849e+00  4.0410747038998993e