<?xml version="1.0"?>
<VTKFile type="UnstructuredGrid"  version="0.1"  >
<UnstructuredGrid>
<Piece  NumberOfPoints="5101" NumberOfCells="10000">
<Points>
<DataArray  type="Float64"  NumberOfComponents="3"  format="ascii">0 0 0  0.2 0 0  0.4 0 0  0.6 0 0  0.8 0 0  1 0 0  1.2 0 0  1.4 0 0  1.6 0 0  1.8 0 0  2 0 0  2.2 0 0  2.4 0 0  2.6 0 0  2.8 0 0  3 0 0  3.2 0 0  3.4 0 0  3.6 0 0  3.8 0 0  4 0 0  4.2 0 0  4.4 0 0  4.6 0 0  4.8 0 0  5 0 0  5.2 0 0  5.4 0 0  5.6 0 0  5.8 0 0  6 0 0  6.2 0 0  6.4 0 0  6.6 0 0  6.8 0 0  7 0 0  7.2 0 0  7.4 0 0  7.6 0 0  7.8 0 0  8 0 0  8.199999999999999 0 0  8.4 0 0  8.6 0 0  8.800000000000001 0 0  9 0 0  9.199999999999999 0 0  9.4 0 0  9.6 0 0  9.800000000000001 0 0  10 0 0  0 0.2 0  0.2 0.2 0  0.4 0.2 0  0.6 0.2 0  0.8 0.2 0  1 0.2 0  1.2 0.2 0  1.4 0.2 0  1.6 0.2 0  1.8 0.2 0  2 0.2 0  2.2 0.2 0  2.4 0.2 0  2.6 0.2 0  2.8 0.2 0  3 0.2 0  3.2 0.2 0  3.4 0.2 0  3.6 0.2 0  3.8 0.2 0  4 0.2 0  4.2 0.2 0  4.4 0.2 0  4.6 0.2 0  4.8 0.2 0  5 0.2 0  5.2 0.2 0  5.4 0.2 0  5.6 0.2 0  5.8 0.2 0  6 0.2 0  6.2 0.2 0  6.4 0.2 0  6.6 0.2 0  6.8 0.2 0  7 0.2 0  7.2 0.2 0  7.4 0.2 0  7.6 0.2 0  7.8 0.2 0  8 0.2 0  8.199999999999999 0.2 0  8.4 0.2 0  8.6 0.2 0  8.800000000000001 0.2 0  9 0.2 0  9.199999999999999 0.2 0  9.4 0.2 0  9.6 0.2 0  9.800000000000001 0.2 0  10 0.2 0  0 0.4 0  0.2 0.4 0  0.4 0.4 0  0.6 0.4 0  0.8 0.4 0  1 0.4 0  1.2 0.4 0  1.4 0.4 0  1.6 0.4 0  1.8 0.4 0  2 0.4 0  2.2 0.4 0  2.4 0.4 0  2.6 0.4 0  2.8 0.4 0  3 0.4 0  3.2 0.4 0  3.4 0.4 0  3.6 0.4 0  3.8 0.4 0  4 0.4 0  4.2 0.4 0  4.4 0.4 0  4.6 0.4 0  4.8 0.4 0  5 0.4 0  5.2 0.4 0  5.4 0.4 0  5.6 0.4 0  5.8 0.4 0  6 0.4 0  6.2 0.4 0  6.4 0.4 0  6.6 0.4 0  6.8 0.4 0  7 0.4 0  7.2 0.4 0  7.4 0.4 0  7.6 0.4 0  7.8 0.4 0  8 0.4 0  8.199999999999999 0.4 0  8.4 0.4 0  8.6 0.4 0  8.800000000000001 0.4 0  9 0.4 0  9.199999999999999 0.4 0  9.4 0.4 0  9.6 0.4 0  9.800000000000001 0.4 0  10 0.4 0  0 0.6 0  0.2 0.6 0  0.4 0.6 0  0.6 0.6 0  0.8 0.6 0  1 0.6 0  1.2 0.6 0  1.4 0.6 0  1.6 0.6 0  1.8 0.6 0  2 0.6 0  2.2 0.6 0  2.4 0.6 0  2.6 0.6 0  2.8 0.6 0  3 0.6 0  3.2 0.6 0  3.4 0.6 0  3.6 0.6 0  3.8 0.6 0  4 0.6 0  4.2 0.6 0  4.4 0.6 0  4.6 0.6 0  4.8 0.6 0  5 0.6 0  5.2 0.6 0  5.4 0.6 0  5.6 0.6 0  5.8 0.6 0  6 0.6 0  6.2 0.6 0  6.4 0.6 0  6.6 0.6 0  6.8 0.6 0  7 0.6 0  7.2 0.6 0  7.4 0.6 0  7.6 0.6 0  7.8 0.6 0  8 0.6 0  8.199999999999999 0.6 0  8.4 0.6 0  8.6 0.6 0  8.800000000000001 0.6 0  9 0.6 0  9.199999999999999 0.6 0  9.4 0.6 0  9.6 0.6 0  9.800000000000001 0.6 0  10 0.6 0  0 0.8 0  0.2 0.8 0  0.4 0.8 0  0.6 0.8 0  0.8 0.8 0  1 0.8 0  1.2 0.8 0  1.4 0.8 0  1.6 0.8 0  1.8 0.8 0  2 0.8 0  2.2 0.8 0  2.4 0.8 0  2.6 0.8 0  2.8 0.8 0  3 0.8 0  3.2 0.8 0  3.4 0.8 0  3.6 0.8 0  3.8 0.8 0  4 0.8 0  4.2 0.8 0  4.4 0.8 0  4.6 0.8 0  4.8 0.8 0  5 0.8 0  5.2 0.8 0  5.4 0.8 0  5.6 0.8 0  5.8 0.8 0  6 0.8 0  6.2 0.8 0  6.4 0.8 0  6.6 0.8 0  6.8 0.8 0  7 0.8 0  7.2 0.8 0  7.4 0.8 0  7.6 0.8 0  7.8 0.8 0  8 0.8 0  8.199999999999999 0.8 0  8.4 0.8 0  8.6 0.8 0  8.800000000000001 0.8 0  9 0.8 0  9.199999999999999 0.8 0  9.4 0.8 0  9.6 0.8 0  9.800000000000001 0.8 0  10 0.8 0  0 1 0  0.2 1 0  0.4 1 0  0.6 1 0  0.8 1 0  1 1 0  1.2 1 0  1.4 1 0  1.6 1 0  1.8 1 0  2 1 0  2.2 1 0  2.4 1 0  2.6 1 0  2.8 1 0  3 1 0  3.2 1 0  3.4 1 0  3.6 1 0  3.8 1 0  4 1 0  4.2 1 0  4.4 1 0  4.6 1 0  4.8 1 0  5 1 0  5.2 1 0  5.4 1 0  5.6 1 0  5.8 1 0  6 1 0  6.2 1 0  6.4 1 0  6.6 1 0  6.8 1 0  7 1 0  7.2 1 0  7.4 1 0  7.6 1 0  7.8 1 0  8 1 0  8.199999999999999 1 0  8.4 1 0  8.6 1 0  8.800000000000001 1 0  9 1 0  9.199999999999999 1 0  9.4 1 0  9.6 1 0  9.800000000000001 1 0  10 1 0  0 1.2 0  0.2 1.2 0  0.4 1.2 0  0.6 1.2 0  0.8 1.2 0  1 1.2 0  1.2 1.2 0  1.4 1.2 0  1.6 1.2 0  1.8 1.2 0  2 1.2 0  2.2 1.2 0  2.4 1.2 0  2.6 1.2 0  2.8 1.2 0  3 1.2 0  3.2 1.2 0  3.4 1.2 0  3.6 1.2 0  3.8 1.2 0  4 1.2 0  4.2 1.2 0  4.4 1.2 0  4.6 1.2 0  4.8 1.2 0  5 1.2 0  5.2 1.2 0  5.4 1.2 0  5.6 1.2 0  5.8 1.2 0  6 1.2 0  6.2 1.2 0  6.4 1.2 0  6.6 1.2 0  6.8 1.2 0  7 1.2 0  7.2 1.2 0  7.4 1.2 0  7.6 1.2 0  7.8 1.2 0  8 1.2 0  8.199999999999999 1.2 0  8.4 1.2 0  8.6 1.2 0  8.800000000000001 1.2 0  9 1.2 0  9.199999999999999 1.2 0  9.4 1.2 0  9.6 1.2 0  9.800000000000001 1.2 0  10 1.2 0  0 1.4 0  0.2 1.4 0  0.4 1.4 0  0.6 1.4 0  0.8 1.4 0  1 1.4 0  1.2 1.4 0  1.4 1.4 0  1.6 1.4 0  1.8 1.4 0  2 1.4 0  2.2 1.4 0  2.4 1.4 0  2.6 1.4 0  2.8 1.4 0  3 1.4 0  3.2 1.4 0  3.4 1.4 0  3.6 1.4 0  3.8 1.4 0  4 1.4 0  4.2 1.4 0  4.4 1.4 0  4.6 1.4 0  4.8 1.4 0  5 1.4 0  5.2 1.4 0  5.4 1.4 0  5.6 1.4 0  5.8 1.4 0  6 1.4 0  6.2 1.4 0  6.4 1.4 0  6.6 1.4 0  6.8 1.4 0  7 1.4 0  7.2 1.4 0  7.4 1.4 0  7.6 1.4 0  7.8 1.4 0  8 1.4 0  8.199999999999999 1.4 0  8.4 1.4 0  8.6 1.4 0  8.800000000000001 1.4 0  9 1.4 0  9.199999999999999 1.4 0  9.4 1.4 0  9.6 1.4 0  9.800000000000001 1.4 0  10 1.4 0  0 1.6 0  0.2 1.6 0  0.4 1.6 0  0.6 1.6 0  0.8 1.6 0  1 1.6 0  1.2 1.6 0  1.4 1.6 0  1.6 1.6 0  1.8 1.6 0  2 1.6 0  2.2 1.6 0  2.4 1.6 0  2.6 1.6 0  2.8 1.6 0  3 1.6 0  3.2 1.6 0  3.4 1.6 0  3.6 1.6 0  3.8 1.6 0  4 1.6 0  4.2 1.6 0  4.4 1.6 0  4.6 1.6 0  4.8 1.6 0  5 1.6 0  5.2 1.6 0  5.4 1.6 0  5.6 1.6 0  5.8 1.6 0  6 1.6 0  6.2 1.6 0  6.4 1.6 0  6.6 1.6 0  6.8 1.6 0  7 1.6 0  7.2 1.6 0  7.4 1.6 0  7.6 1.6 0  7.8 1.6 0  8 1.6 0  8.199999999999999 1.6 0  8.4 1.6 0  8.6 1.6 0  8.800000000000001 1.6 0  9 1.6 0  9.199999999999999 1.6 0  9.4 1.6 0  9.6 1.6 0  9.800000000000001 1.6 0  10 1.6 0  0 1.8 0  0.2 1.8 0  0.4 1.8 0  0.6 1.8 0  0.8 1.8 0  1 1.8 0  1.2 1.8 0  1.4 1.8 0  1.6 1.8 0  1.8 1.8 0  2 1.8 0  2.2 1.8 0  2.4 1.8 0  2.6 1.8 0  2.8 1.8 0  3 1.8 0  3.2 1.8 0  3.4 1.8 0  3.6 1.8 0  3.8 1.8 0  4 1.8 0  4.2 1.8 0  4.4 1.8 0  4.6 1.8 0  4.8 1.8 0  5 1.8 0  5.2 1.8 0  5.4 1.8 0  5.6 1.8 0  5.8 1.8 0  6 1.8 0  6.2 1.8 0  6.4 1.8 0  6.6 1.8 0  6.8 1.8 0  7 1.8 0  7.2 1.8 0  7.4 1.8 0  7.6 1.8 0  7.8 1.8 0  8 1.8 0  8.199999999999999 1.8 0  8.4 1.8 0  8.6 1.8 0  8.800000000000001 1.8 0  9 1.8 0  9.199999999999999 1.8 0  9.4 1.8 0  9.6 1.8 0  9.800000000000001 1.8 0  10 1.8 0  0 2 0  0.2 2 0  0.4 2 0  0.6 2 0  0.8 2 0  1 2 0  1.2 2 0  1.4 2 0  1.6 2 0  1.8 2 0  2 2 0  2.2 2 0  2.4 2 0  2.6 2 0  2.8 2 0  3 2 0  3.2 2 0  3.4 2 0  3.6 2 0  3.8 2 0  4 2 0  4.2 2 0  4.4 2 0  4.6 2 0  4.8 2 0  5 2 0  5.2 2 0  5.4 2 0  5.6 2 0  5.8 2 0  6 2 0  6.2 2 0  6.4 2 0  6.6 2 0  6.8 2 0  7 2 0  7.2 2 0  7.4 2 0  7.6 2 0  7.8 2 0  8 2 0  8.199999999999999 2 0  8.4 2 0  8.6 2 0  8.800000000000001 2 0  9 2 0  9.199999999999999 2 0  9.4 2 0  9.6 2 0  9.800000000000001 2 0  10 2 0  0 2.2 0  0.2 2.2 0  0.4 2.2 0  0.6 2.2 0  0.8 2.2 0  1 2.2 0  1.2 2.2 0  1.4 2.2 0  1.6 2.2 0  1.8 2.2 0  2 2.2 0  2.2 2.2 0  2.4 2.2 0  2.6 2.2 0  2.8 2.2 0  3 2.2 0  3.2 2.2 0  3.4 2.2 0  3.6 2.2 0  3.8 2.2 0  4 2.2 0  4.2 2.2 0  4.4 2.2 0  4.6 2.2 0  4.8 2.2 0  5 2.2 0  5.2 2.2 0  5.4 2.2 0  5.6 2.2 0  5.8 2.2 0  6 2.2 0  6.2 2.2 0  6.4 2.2 0  6.6 2.2 0  6.8 2.2 0  7 2.2 0  7.2 2.2 0  7.4 2.2 0  7.6 2.2 0  7.8 2.2 0  8 2.2 0  8.199999999999999 2.2 0  8.4 2.2 0  8.6 2.2 0  8.800000000000001 2.2 0  9 2.2 0  9.199999999999999 2.2 0  9.4 2.2 0  9.6 2.2 0  9.800000000000001 2.2 0  10 2.2 0  0 2.4 0  0.2 2.4 0  0.4 2.4 0  0.6 2.4 0  0.8 2.4 0  1 2.4 0  1.2 2.4 0  1.4 2.4 0  1.6 2.4 0  1.8 2.4 0  2 2.4 0  2.2 2.4 0  2.4 2.4 0  2.6 2.4 0  2.8 2.4 0  3 2.4 0  3.2 2.4 0  3.4 2.4 0  3.6 2.4 0  3.8 2.4 0  4 2.4 0  4.2 2.4 0  4.4 2.4 0  4.6 2.4 0  4.8 2.4 0  5 2.4 0  5.2 2.4 0  5.4 2.4 0  5.6 2.4 0  5.8 2.4 0  6 2.4 0  6.2 2.4 0  6.4 2.4 0  6.6 2.4 0  6.8 2.4 0  7 2.4 0  7.2 2.4 0  7.4 2.4 0  7.6 2.4 0  7.8 2.4 0  8 2.4 0  8.199999999999999 2.4 0  8.4 2.4 0  8.6 2.4 0  8.800000000000001 2.4 0  9 2.4 0  9.199999999999999 2.4 0  9.4 2.4 0  9.6 2.4 0  9.800000000000001 2.4 0  10 2.4 0  0 2.6 0  0.2 2.6 0  0.4 2.6 0  0.6 2.6 0  0.8 2.6 0  1 2.6 0  1.2 2.6 0  1.4 2.6 0  1.6 2.6 0  1.8 2.6 0  2 2.6 0  2.2 2.6 0  2.4 2.6 0  2.6 2.6 0  2.8 2.6 0  3 2.6 0  3.2 2.6 0  3.4 2.6 0  3.6 2.6 0  3.8 2.6 0  4 2.6 0  4.2 2.6 0  4.4 2.6 0  4.6 2.6 0  4.8 2.6 0  5 2.6 0  5.2 2.6 0  5.4 2.6 0  5.6 2.6 0  5.8 2.6 0  6 2.6 0  6.2 2.6 0  6.4 2.6 0  6.6 2.6 0  6.8 2.6 0  7 2.6 0  7.2 2.6 0  7.4 2.6 0  7.6 2.6 0  7.8 2.6 0  8 2.6 0  8.199999999999999 2.6 0  8.4 2.6 0  8.6 2.6 0  8.800000000000001 2.6 0  9 2.6 0  9.199999999999999 2.6 0  9.4 2.6 0  9.6 2.6 0  9.800000000000001 2.6 0  10 2.6 0  0 2.8 0  0.2 2.8 0  0.4 2.8 0  0.6 2.8 0  0.8 2.8 0  1 2.8 0  1.2 2.8 0  1.4 2.8 0  1.6 2.8 0  1.8 2.8 0  2 2.8 0  2.2 2.8 0  2.4 2.8 0  2.6 2.8 0  2.8 2.8 0  3 2.8 0  3.2 2.8 0  3.4 2.8 0  3.6 2.8 0  3.8 2.8 0  4 2.8 0  4.2 2.8 0  4.4 2.8 0  4.6 2.8 0  4.8 2.8 0  5 2.8 0  5.2 2.8 0  5.4 2.8 0  5.6 2.8 0  5.8 2.8 0  6 2.8 0  6.2 2.8 0  6.4 2.8 0  6.6 2.8 0  6.8 2.8 0  7 2.8 0  7.2 2.8 0  7.4 2.8 0  7.6 2.8 0  7.8 2.8 0  8 2.8 0  8.199999999999999 2.8 0  8.4 2.8 0  8.6 2.8 0  8.800000000000001 2.8 0  9 2.8 0  9.199999999999999 2.8 0  9.4 2.8 0  9.6 2.8 0  9.800000000000001 2.8 0  10 2.8 0  0 3 0  0.2 3 0  0.4 3 0  0.6 3 0  0.8 3 0  1 3 0  1.2 3 0  1.4 3 0  1.6 3 0  1.8 3 0  2 3 0  2.2 3 0  2.4 3 0  2.6 3 0  2.8 3 0  3 3 0  3.2 3 0  3.4 3 0  3.6 3 0  3.8 3 0  4 3 0  4.2 3 0  4.4 3 0  4.6 3 0  4.8 3 0  5 3 0  5.2 3 0  5.4 3 0  5.6 3 0  5.8 3 0  6 3 0  6.2 3 0  6.4 3 0  6.6 3 0  6.8 3 0  7 3 0  7.2 3 0  7.4 3 0  7.6 3 0  7.8 3 0  8 3 0  8.199999999999999 3 0  8.4 3 0  8.6 3 0  8.800000000000001 3 0  9 3 0  9.199999999999999 3 0  9.4 3 0  9.6 3 0  9.800000000000001 3 0  10 3 0  0 3.2 0  0.2 3.2 0  0.4 3.2 0  0.6 3.2 0  0.8 3.2 0  1 3.2 0  1.2 3.2 0  1.4 3.2 0  1.6 3.2 0  1.8 3.2 0  2 3.2 0  2.2 3.2 0  2.4 3.2 0  2.6 3.2 0  2.8 3.2 0  3 3.2 0  3.2 3.2 0  3.4 3.2 0  3.6 3.2 0  3.8 3.2 0  4 3.2 0  4.2 3.2 0  4.4 3.2 0  4.6 3.2 0  4.8 3.2 0  5 3.2 0  5.2 3.2 0  5.4 3.2 0  5.6 3.2 0  5.8 3.2 0  6 3.2 0  6.2 3.2 0  6.4 3.2 0  6.6 3.2 0  6.8 3.2 0  7 3.2 0  7.2 3.2 0  7.4 3.2 0  7.6 3.2 0  7.8 3.2 0  8 3.2 0  8.199999999999999 3.2 0  8.4 3.2 0  8.6 3.2 0  8.800000000000001 3.2 0  9 3.2 0  9.199999999999999 3.2 0  9.4 3.2 0  9.6 3.2 0  9.800000000000001 3.2 0  10 3.2 0  0 3.4 0  0.2 3.4 0  0.4 3.4 0  0.6 3.4 0  0.8 3.4 0  1 
[...]
<PointData  Scalars="f_5"> 
<DataArray  type="Float64"  Name="f_5"  format="ascii">3.6362440294622517e-02  2.9009259136038729e-01  4.3085201932624956e-01  5.2628073649644402e-01  5.9701330333728320e-01  6.5199137295705856e-01  6.9666546491802017e-01  7.3462615044826429e-01  7.6855267609281086e-01  8.0069660856821945e-01  8.3319015688460940e-01  8.6825359967456950e-01  9.0833927830216599e-01  9.5623199943366599e-01  1.0151137312671616e+00  1.0885806608801571e+00  1.1805249866676677e+00  1.2944769262877767e+00  1.4308899814357570e+00  1.5781143094508707e+00  1.6968684939830758e+00  1.7541800915471719e+00  1.8261773552366614e+00  1.9572313260047436e+00  1.9730676479970188e+00  1.9830920924200621e+00  1.9831144730292138e+00  1.9695507685288842e+00  1.9745810617437556e+00  1.7971559802717694e+00  1.7428365126008163e+00  1.6583462802942175e+00  1.5182010144339431e+00  1.3736444677219728e+00  1.2485026376169766e+00  1.1461320205925190e+00  1.0637208779268155e+00  9.9732593048488793e-01  9.4315281271252693e-01  8.9781293846077859e-01  8.5833223741468179e-01  8.2209047027248539e-01  7.8672130215035196e-01  7.4996860875783400e-01  7.0947917431564489e-01  6.6249318888443831e-01  6.0535733501761224e-01  5.3257137382228792e-01  4.3515133684088847e-01  2.9241959696400172e-01  3.6808693667871914e-02  1.7112891227215165e-02  1.7859704454646769e-01  2.9308980827469555e-01  3.8149073837579833e-01  4.4770386590522621e-01  5.0022995661754077e-01  5.4329797799046076e-01  5.8022827089076279e-01  6.1354813967239330e-01  6.4543959164949238e-01  6.7800155037984511e-01  7.1343658834742973e-01  7.5419148568123962e-01  8.0306881420321508e-01  8.6332347757265437e-01  9.3875609931110804e-01  1.0338620193207135e+00  1.1543109781113590e+00  1.3068249699516890e+00  1.4872591353272977e+00  1.6419972429811800e+00  1.6861702429110139e+00  1.6840867000238449e+00  1.7762861970306900e+00  1.7464392606357473e+00  1.7470855896044462e+00  1.7482261408435131e+00  1.7515076802404412e+00  1.7944400732475423e+00  1.7057975746026244e+00  1.6961937656677195e+00  1.5872950185561507e+00  1.4071923778308979e+00  1.2388229998917348e+00  1.1040165911987463e+00  9.9754720929786356e-01  9.1284053740368776e-01  8.4490964142947100e-01  7.8964597151019256e-01  7.4354848991049194e-01  7.0361078386319986e-01  6.6721544401762101e-01  6.3201628231180240e-01  5.9579424537780523e-01  5.5626862382205522e-01  5.1083274927680700e-01  4.5610299604902005e-01  3.8779896136964659e-01  2.9737723024802998e-01  1.8087862510549615e-01  1.7449299237031205e-02  8.5281375363855782e-03  1.1600292010620647e-01  2.0275229652011378e-01  2.7431159235101599e-01  3.3160494712395516e-01  3.7827278672389736e-01  4.1738297029128113e-01  4.5146544655385895e-01  4.8266755827995966e-01  5.1295022625795328e-01  5.4426318306122368e-01  5.7868858814721724e-01  6.1855715300365943e-01  6.6654588135852399e-01  7.2576850058872300e-01  7.9987174176661535e-01  8.9317904402226622e-01  1.0110310679064771e+00  1.1592370083930361e+00  1.3327917557493700e+00  1.4827759713554189e+00  1.5353266408908370e+00  1.5459974063427120e+00  1.6529667304507971e+00  1.6239826534869524e+00  1.6251708122088464e+00  1.6261920947504505e+00  1.6273815233101694e+00  1.6441893755578880e+00  1.5576095420809595e+00  1.5386417682333569e+00  1.4297201980296854e+00  1.2570563456025843e+00  1.0945199852698568e+00  9.6308162510289586e-01  8.5877840359618063e-01  7.7561877575669469e-01  7.0884448413449297e-01  6.5452136921095838e-01  6.0930959097304482e-01  5.7034642872443753e-01  5.3514511925622466e-01  5.0149094541041717e-01  4.6732190036429588e-01  4.3058324770827894e-01  3.8905050708474676e-01  3.4013065216642258e-01  2.8070329771430913e-01  2.0708529737044729e-01  1.1829150110906050e-01  8.8832029037578149e-03  5.6330752141521357e-03  7.7757446151404161e-02  1.4014387318510541e-01  1.9536465708429293e-01  2.4175875965300272e-01  2.8101281071331419e-01  3.1482742187141155e-01  3.4498655662920269e-01  3.7319053625327220e-01  4.0111728078671827e-01  4.3051400167503862e-01  4.6329250120200255e-01  5.0161688178310182e-01  5.4798316893298649e-01  6.0529633581843523e-01  6.7695306175676984e-01  7.6696741257657908e-01  8.8024159144824043e-01  1.0216073635266139e+00  1.1844480044374197e+00  1.3236322170772341e+00  1.3806583103829970e+00  1.4087488438445879e+00  1.5213490487393926e+00  1.4974074992627358e+00  1.4989963478254322e+00  1.5002303577621381e+00  1.5018328524051037e+00  1.4921932324316673e+00  1.4084849736552991e+00  1.3794216719090080e+00  1.2762454094271802e+00  1.1160073710822898e+00  9.6234578485516253e-01  8.3654893818996823e-01  7.3614104214677045e-01  6.5578577164706586e-01  5.9111106605911823e-01  5.3848382327429412e-01  4.9481070096362195e-01  4.5743834288329815e-01  4.2406797474504376e-01  3.9267093018087729e-01  3.6139860103317584e-01  3.2848592787454689e-01  2.9215854625017479e-01  2.5056982888320606e-01  2.0196569000212483e-01  1.4461532711901576e-01  8.0119233888924446e-02  6.0101374400390855e-03  3.2928389196130461e-03  5.1976729696961363e-02  9.5685350026123592e-02  1.3641960961434432e-01  1.7225704221455623e-01  2.0373025527386265e-01  2.3171838993236860e-01  2.5740230302766653e-01  2.8207538929168985e-01  3.0712856295001389e-01  3.3408662515960286e-01  3.6466606774157023e-01  4.0083791308988703e-01  4.4488982461002258e-01  4.9948827950225755e-01  5.6774518862642998e-01  6.5331750638953101e-01  7.6054713434410515e-01  8.9295132067410909e-01  1.0420678281999534e+00  1.1673462649033393e+00  1.2261922044247555e+00  1.2692843931633659e+00  1.3800865855414437e+00  1.3660021001935310e+00  1.3687826748962906e+00  1.3701702158450664e+00  1.3716041926034395e+00  1.3426261406855189e+00  1.2593092521876397e+00  1.2225150883114244e+00  1.1281986310507524e+00  9.8358913418400284e-01  8.4132465779011167e-01  7.2286763792741604e-01  6.2759643631597084e-01  5.5103494550028564e-01  4.8927085027172001e-01  4.3901763156479617e-01  3.9746622211694227e-01  3.6220555764179874e-01  3.3115480956625115e-01  3.0249831756023976e-01  2.7462170089936988e-01  2.4605381183829797e-01  2.1543013630425437e-01  1.8150720869041753e-01  1.4335105583682903e-01  1.0038294765918898e-01  5.4461970530003692e-02  3.7025089183906489e-03  1.6233869538243796e-03  3.3458037358099026e-02  6.2842697618181051e-02  9.1616474025676353e-02  1.1801609508291869e-01  1.4210625061280302e-01  1.6429532015363177e-01  1.8535014779697492e-01  2.0623887084574963e-01  2.2809446866915983e-01  2.5222415630406214e-01  2.8014401086260793e-01  3.1362433390606920e-01  3.5473804202613823e-01  4.0590909999064212e-01  4.6996083970466329e-01  5.5017716290180452e-01  6.5026059992295915e-01  7.7227138851008958e-01  9.0623735786066595e-01  1.0170836908810996e+00  1.0767238463737354e+00  1.1315115941528018e+00  1.2332719414552211e+00  1.2307311204456164e+00  1.2350293161964818e+00  1.2364067439462723e+00  1.2362283179604379e+00  1.1980419617046905e+00  1.1155255625193976e+00  1.0728069892566585e+00  9.8783938258984405e-01  8.5974980810841017e-01  7.3026540942215934e-01  6.2030285113070960e-01  5.3107410316871217e-01  4.5907305646496793e-01  4.0088348228472404e-01  3.5357651025978348e-01  3.1463540800514478e-01  2.8190005160373099e-01  2.5351610069312702e-01  2.2788588333113810e-01  2.0362359736771618e-01  1.7952175149614247e-01  1.5454277459739232e-01  1.2785617642025515e-01  9.8996524231890357e-02  6.7850369750704270e-02  3.6113280276595418e-02  2.0773355915589234e-03  2.8241472404623566e-04  1.9550547453696908e-02  3.7813989361253887e-02  5.6823531110750267e-02  7.5095441532395085e-02  9.2509639569244753e-02  1.0922914005475355e-01  1.2575220196856965e-01  1.4280168744986568e-01  1.6129143122312739e-01  1.8232713141366289e-01  2.0723012560352508e-01  2.3757351849591785e-01  2.7522279534594130e-01  3.2237482394551559e-01  3.8158897899904570e-01  4.5579795393050104e-01  5.4805668430633159e-01  6.5909220806267532e-01  7.7829087920223261e-01  8.7666306866041377e-01  9.3724516843299177e-01  9.9976690512606026e-01  1.0860802660911089e+00  1.0940855244949195e+00  1.0999813029928622e+00  1.1013092951656851e+00  1.0985462757604354e+00  1.0589377315582629e+00  9.8218785828458222e-01  9.3558098012166535e-01  8.5810950753383275e-01  7.4503816324821659e-01  6.2839959696319136e-01  5.2745948428946920e-01  4.4481054745041571e-01  3.7788777874526180e-01  3.2375925303196607e-01  2.7983224275432789e-01  2.4386759680167250e-01  2.1394850237697816e-01  1.8844228098200827e-01  1.6596145213107963e-01  1.4533013884072218e-01  1.2556307953953516e-01  1.0586730375606873e-01  8.5677958154108586e-02  6.4771396127588463e-02  4.3215414308259599e-02  2.2420620493601742e-02  7.9260071390967765e-04  -8.5495812398027034e-04  8.7118905956975693e-03  1.8148594523505823e-02  2.9148475509437877e-02  4.0486032700937889e-02  5.1982570872866354e-02  6.3677493644079930e-02  7.5896154051108597e-02  8.9177650078733850e-02  1.0425120211140460e-01  1.2203776219906243e-01  1.4367140858841979e-01  1.7053368571538663e-01  2.0429355659588844e-01  2.4694426636942737e-01  3.0082311986663923e-01  3.6857063038016252e-01  4.5269867649136453e-01  5.5303809201147336e-01  6.5945333579210552e-01  7.4879863922691026e-01  8.1046550259957817e-01  8.7517937270543478e-01  9.4300738415557661e-01  9.5875911071265174e-01  9.6627562586879834e-01  9.6779213184057544e-01  9.6249028319416030e-01  9.2663149456506144e-01  8.6254089980371296e-01  8.1410426971881378e-01  7.4113350987652682e-01  6.3989148295274623e-01  5.3499814750068464e-01  4.4305368439358261e-01  3.6723436835609163e-01  3.0570952054727363e-01  2.5596805379210458e-01  2.1571345691760926e-01  1.8296071774572550e-01  1.5602391930213896e-01  1.3348338839806073e-01  1.1415023449354295e-01  9.7037197276570217e-02  8.1342424816325129e-02  6.6452430763024609e-02  5.1969539507809602e-02  3.7788177934053209e-02  2.4030037033574279e-02  1.1840988784138626e-02  -2.7639165056146940e-04  -1.8767262440965147e-03  -3.7919538562637067e-05  2.1962020379876130e-03  6.5094460619074083e-03  1.1885593686945766e-02  1.8141970949422756e-02  2.5258138689792702e-02  3.3445399300204313e-02  4.3101359173741534e-02  5.4795640154006585e-02  6.9275349866344899e-02  8.7488990702451974e-02  1.1062487395085865e-01  1.4015733854100809e-01  1.7788995490025838e-01  2.2597403470146557e-01  2.8683265787268936e-01  3.6263361756858470e-01  4.5293443653424564e-01  5.4907773912552194e-01  6.3281854088043699e-01  6.9535841004722965e-01  7.5584096224021236e-01  8.0748809826990509e-01  8.2801116356996796e-01  8.3762222243259277e-01  8.4000608429432699e-01  8.3334367421663114e-01  8.0472077149139221e-01  7.5645174543599258e-01  7.0721739238646708e-01  6.3597983647119694e-01  5.4334679075319181e-01  4.4880939376476064e-01  3.6567139015589523e-01  2.9685499450723485e-01  2.4096297347899948e-01  1.9582418834933316e-01  1.5940929992385253e-01  1.2997661931987695e-01  1.0606798560840179e-01  8.6473793934309623e-02  7.0195475697000201e-02  5.6416403351627654e-02  4.4486727615694839e-02  3.3925127530563204e-02  2.4438621933663363e-02  1.5973475494312252e-02  8.6490591448518672e-03  3.3943087029737950e-03  -1.2174733187871377e-03  -2.8446112726435869e-03  -7.3680653109179893e-03  -1.1222136871087121e-02  -1.2650393221478368e-02  -1.2506881571205582e-02  -1.0952012495983782e-02  -8.0305108614998483e-03  -3.6075708191802849e-03  2.6015414741711869e-03  1.1022356437198497e-02  2.2229927100981376e-02  3.6977398724190418e-02  5.6242584404938560e-02  8.1285878763718178e-02  1.1370638575283180e-01  1.5546821157105828e-01  2.0881341722518884e-01  2.7573785782588195e-01  3.5604389805278752e-01  4.4319797128554295e-01  5.2313917944789301e-01  5.8658560530186832e-01  6.4058153607373913e-01  6.8229778223473170e-01  7.0587648513533252e-01  7.1850785530590411e-01  7.2280094236232173e-01  7.1694021430690724e-01  6.9546405978902159e-01  6.5830477691091582e-01  6.0811850259073341e-01  5.3761163982105697e-01  4.5238738391574801e-01  3.6784002312321701e-01  2.9374705716088007e-01  2.3227865524629249e-01  1.8227467329810146e-01  1.4188189511836244e-01  1.0935689268340730e-01  8.3223816356392921e-02  6.2270328703043082e-02  4.5506790878192517e-02  3.2124255235419126e-02  2.1464051535665368e-02  1.3003525239614488e-02  6.3581503050561426e-03  1.2978036074626593e-03  -2.2175175796373598e-03  -4.0986430737749548e-03  -3.5877799652115103e-03  -2.0917482498884828e-03  -3.8057910544059569e-03  -1.3766521898257191e-02  -2.3000666158175361e-02  -2.9552471961390669e-02  -3.4153271872638002e-02  -3.6923799015096508e-02  -3.7907712841915818e-02  -3.7017474332689815e-02  -3.4058883266194578e-02  -2.8741786049766949e-02  -2.0671422793850019e-02  -9.3149118316547663e-03  6.0565662867879504e-03  2.6441591243634151e-02  5.3181107348430436e-02  8.7995869951681710e-02  1.3290325524054916e-01  1.8975665878562606e-01  2.5878454908973086e-01  3.3574736345984924e-01  4.1068624579440727e-01  4.7438199888327531e-01  5.2567713462583177e-01  5.6455767414666269e-01  5.9091353578050865e-01  6.0704960332140179e-01  6.1388313284219587e-01  6.0984707301047802e-01  5.9197257441690843e-01  5.5825228863715681e-01  5.0731940001394360e-01  4.3969463519234125e-01  3.6357626781122521e-01  2.9017350349490195e-01  2.2597888523652429e-01  1.7240803656604803e-01  1.2855170407505617e-01  9.2948746158797779e-02  6.4220045121383698e-02  4.1217193220635835e-02  2.3016792299397730e-02  8.8743947681178010e-03  -1.8215908700539656e-03  -9.5804822569164998e-03  -1.4819926095913757e-02  -1.7858759146275067e-02  -1.8897941302793212e-02  -1.7990797863499254e-02  -1.5096587786293811e-02  -9.5907136929475039e-03  -2.9447293672319624e-03  -4.8004503983229948e-03  -1.9613901461551397e-02  -3.3860884754072271e-02  -4.5208128926678949e-02  -5.4297448641253188e-02  -6.1191849240350496e-02  -6.5907092232390926e-02  -6.8371158481776398e-02  -6.8456348853335305e-02  -6.6001713314615684e-02  -6.0810558362206668e-02  -5.2612629102248766e-02  -4.0990909790485544e-02  -2.5285803577966028e-02  -4.5017814044605274e-03  2.2742778801165021e-02  5.8143697343152119e-02  1.0333724896646208e-01  1.5889027574096626e-01  2.2253872881457132e-01  2.8814881562899253e-01  3.4831948958029940e-01  3.9877819004297249e-01  4.3850379857308386e-01  4.6777174812272432e-01  4.8720582694337511e-01  4.9659042475671478e-01  4.9431834357637028e-01  4.7806689911971684e-01  4.4610364994418744e-01  3.9856886665970004e-01  3.3927234079216628e-01  2.7570418003753533e-01  2.1522853280485604e-01  1.6189556736558769e-01  1.1668543762447953e-01  7.9067781342160817e-02  4.8092700530776800e-02  2.2854667425693680e-02  2.6199488062122853e-03  -1.3182661779426763e-02  -2.5013561023892406e-02  -3.3272634593898072e-02  -3.8328034037920011e-02  -4.0517994846281984e-02  -4.0130791540429103e-02  -3.7373755170932402e-02  -3.2339722678576856e-02  -2.5052986857565906e-02  -1.4990341819272026e-02  -3.8134259110732408e-03  -5.8671156121096017e-03  -2.5227325473349240e-02  -4.4418977533932993e-02  -6.0498492010711176e-02  -7.4048726031322162e-02  -8.5050806138525115e-02  -9.3455308501219830e-02  -9.9161341081737214e-02  -1.0207318644615548e-01  -1.0215005158094367e-01  -9.9419545968930351e-02  -9.3936379569500017e-02  -8.5685527848450446e-02  -7.4451130649902358e-02  -5.9690613692617071e-02  -4.0464377712549411e-02  -1.5487345160360579e-02  1.6589648592436532e-02  5.6521641404700083e-02  1.0345176557021939e-01  1.5421380094112005e-01  2.0417560633889600e-01  2.4937618230746664e-01  2.8767899684620224e-01  3.1822349417355983e-01  3.4047161026680695e-01  3.5341863132463974e-01  3.5535328705425695e-01  3.4446914878686818e-01  3.2000823372585679e-01  2.8333854802847974e-01  2.3835838114641492e-01  1.9038989171632370e-01  1.4405199508990768e-01  1.0200123775013711e-01  6.5149865858003447e-02  3.3466340555794033e-02  6.6109649955404231e-03  -1.5745511552845797e-02  -3.3827183470714360e-02  -4.7776015899306787e-02  -5.7717939274769828e-02  -6.3822790922921313e-02  -6.6330574614839752e-02  -6.5536975946932238e-02  -6.1748028164578764e-02  -5.5223634271889657e-02  -4.6128378303223971e-02  -3.4570355023961677e-02  -2.0097696677808370e-02  -4.7313818172315105e-03  -7.0465597181078449e-03  -3.0883895554063370e-02  -5.5220757660658093e-02  -7.6215246321613778e-02  -9.4423514534077407e-02  -1.0971151185377948e-01  -1.2190929957941568e-01  -1.3081997879129859e-01  -1.3632521555168453e-01  -1.3848631803707470e-01  -1.3758885186741002e-01  -1.3409880237384003e-01  -1.2852686576796032e-01  -1.2123551591336344e-01  -1.1225516194512897e-01  -1.0117819557750067e-01  -8.7181532211576152e-02  -6.9220769012366248e-02  -4.6433334966050489e-02  -1.8695256781441943e-02  1.2974533622683878e-02  4.6622600576508653e-02  8.0164089392434301e-02  1.1201802537582427e-01  1.4103930922402977e-01  1.6602061023839837e-01  1.8525040278538435e-01  1.9653980300260301e-01  1.9787206379761649e-01  1.8834702097072295e-01  1.6883324131754401e-01  1.4187763800052675e-01  1.1082005539026159e-01  7.8665079071272764e-02  4.7447628179208050e-02  1.8268962083685201e-02  -8.3357031751557856e-03  -3.2039104805573967e-02  -5.2512768924154643e-02  -6.9373852753698090e-02  -8.2242918482817895e-02  -9.0847226740673748e-02  -9.5105471760412286e-02  -9.5153451641589878e-02  -9.1302236411280602e-02  -8.3947842188631674e-02  -7.3468267857091887e-02  -6.0143245639335922e-02  -4.4187200176531161e-02  -2.5186007890597436e-02  -5.7325179268184001e-03  -8.3839570729064266e-03  -3.6826409735773467e-02  -6.6744769209407598e-02  -9.3055740504451506e-02  -1.1632713695697944e-01  -1.3626732507739264e-01  -1.5250696700528182e-01  -1.6465480644705457e-01  -1.7248757882938820e-01  -1.7613724108556067e-01  -1.7618732467589815e-01  -1.7362905185790503e-01  -1.6966485315329830e-01  -1.6540805303693748e-01  -1.6159624177064871e-01  -1.5842999188164242e-01  -1.5556960528181604e-01  -1.5226098135862839e-01  -1.4755053091730025e-01  -1.4053324340578233e-01  -1.3052345210768321e-01  -1.1703667959480142e-01  -9.9652505327966254e-02  -7.8043579583641054e-02  -5.2354376936038775e-02  -2.3747303084141535e-02  5.3083212671520864e-03  3.1364376146863708e-02  5.0930016924527546e-02  6.1563684379887504e-02  6.2541266488026770e-02  5.4803128300384904e-02  4.0315570443005995e-02  2.1278333370904439e-02  -4.1135196962244447e-04  -2.3304367278071930e-02  -4.6273388108703843e-02  -6.8302878213856513e-02  -8.8340378996205809e-02  -1.0528629898098242e-01  -1.1812011007902405e-01  -1.2608384573376805e-01  -1.2881972498590358e-01  -1.2639983195719875e-01  -1.1924074365469375e-01  -1.0793693160284341e-01  -9.3077910602006972e-02  -7.5116259493685889e-02  -5.4398057958048855e-02  -3.0504127358615501e-02  -6.8536420599172414e-03  -9.9319865599787598e-03  -4.3250541460149797e-02  -7.9363042230244193e-02  -1.1155076198979390e-01  -1.4043686826645177e-01  -1.6552492368939514e-01  -1.8614320482123139e-01  -2.0157687484901157e-01  -2.1139342604257588e-01  -2.1575728214447995e-01  -2.1559311398861489e-01  -2.1255060288181188e-01  -2.0873323457284446e-01  -2.0622309170684802e-01  -2.0661632428815621e-01  -2.1078827079294096e-01  -2.1889641405373661e-01  -2.3048064645767680e-01  -2.4453441977424001e-01  -2.5949344916751177e-01  -2.7315401317611748e-01  -2.8261754789849564e-01  -2.8447330871747095e-01  -2.7545749474645193e-01  -2.5359705678538846e-01  -2.1940314308884090e-01  -1.7637485330519292e-01  -1.3029828906828159e-01  -8.7552222725252787e-02  -5.3283286240234450e-02  -3.0317163427274658e-02  -1.9104392302334797e-02  -1.8406973880196086e-02  -2.6195121629300280e-02  -4.0335919023612415e-02  -5.8909777150707533e-02  -8.0201091853757650e-02  -1.0251630352710957e-01  -1.2401972400009408e-01  -1.4275520288088953e-01  -1.5689536435679149e-01  -1.6507783891432379e-01  -1.6663465729015145e-01  -1.6163109774787487e-01  -1.5071895313598835e-01  -1.3484773914042028e-01  -1.1494728373012753e-01  -9.1715205435167368e-02  -6.5652960769723184e-02  -3.6278343001594035e-02  -8.1349833828124433e-03  -1.1783289494507042e-02  -5.0263782207324470e-02  -9.3228836517714173e-02  -1.3187667676333920e-01  -1.6690891