<?xml version="1.0"?>
<VTKFile type="UnstructuredGrid"  version="0.1"  >
<UnstructuredGrid>
<Piece  NumberOfPoints="5305" NumberOfCells="10404">
<Points>
<DataArray  type="Float64"  NumberOfComponents="3"  format="ascii">-5 -5 0  -4.803921568627451 -5 0  -4.607843137254902 -5 0  -4.411764705882353 -5 0  -4.215686274509804 -5 0  -4.019607843137255 -5 0  -3.823529411764706 -5 0  -3.627450980392157 -5 0  -3.431372549019608 -5 0  -3.235294117647059 -5 0  -3.03921568627451 -5 0  -2.843137254901961 -5 0  -2.647058823529412 -5 0  -2.450980392156863 -5 0  -2.254901960784314 -5 0  -2.058823529411764 -5 0  -1.862745098039216 -5 0  -1.666666666666667 -5 0  -1.470588235294118 -5 0  -1.274509803921569 -5 0  -1.07843137254902 -5 0  -0.882352941176471 -5 0  -0.6862745098039218 -5 0  -0.4901960784313726 -5 0  -0.2941176470588234 -5 0  -0.09803921568627416 -5 0  0.09803921568627416 -5 0  0.2941176470588234 -5 0  0.4901960784313726 -5 0  0.6862745098039218 -5 0  0.882352941176471 -5 0  1.078431372549019 -5 0  1.274509803921569 -5 0  1.470588235294118 -5 0  1.666666666666667 -5 0  1.862745098039215 -5 0  2.058823529411764 -5 0  2.254901960784314 -5 0  2.450980392156863 -5 0  2.647058823529412 -5 0  2.84313725490196 -5 0  3.03921568627451 -5 0  3.235294117647058 -5 0  3.431372549019608 -5 0  3.627450980392156 -5 0  3.823529411764707 -5 0  4.019607843137255 -5 0  4.215686274509803 -5 0  4.411764705882353 -5 0  4.607843137254902 -5 0  4.803921568627452 -5 0  5 -5 0  -5 -4.803921568627451 0  -4.803921568627451 -4.803921568627451 0  -4.607843137254902 -4.803921568627451 0  -4.411764705882353 -4.803921568627451 0  -4.215686274509804 -4.803921568627451 0  -4.019607843137255 -4.803921568627451 0  -3.823529411764706 -4.803921568627451 0  -3.627450980392157 -4.803921568627451 0  -3.431372549019608 -4.803921568627451 0  -3.235294117647059 -4.803921568627451 0  -3.03921568627451 -4.803921568627451 0  -2.843137254901961 -4.803921568627451 0  -2.647058823529412 -4.803921568627451 0  -2.450980392156863 -4.803921568627451 0  -2.254901960784314 -4.803921568627451 0  -2.058823529411764 -4.803921568627451 0  -1.862745098039216 -4.803921568627451 0  -1.666666666666667 -4.803921568627451 0  -1.470588235294118 -4.803921568627451 0  -1.274509803921569 -4.803921568627451 0  -1.07843137254902 -4.803921568627451 0  -0.882352941176471 -4.803921568627451 0  -0.6862745098039218 -4.803921568627451 0  -0.4901960784313726 -4.803921568627451 0  -0.2941176470588234 -4.803921568627451 0  -0.09803921568627416 -4.803921568627451 0  0.09803921568627416 -4.803921568627451 0  0.2941176470588234 -4.803921568627451 0  0.4901960784313726 -4.803921568627451 0  0.6862745098039218 -4.803921568627451 0  0.882352941176471 -4.803921568627451 0  1.078431372549019 -4.803921568627451 0  1.274509803921569 -4.803921568627451 0  1.470588235294118 -4.803921568627451 0  1.666666666666667 -4.803921568627451 0  1.862745098039215 -4.803921568627451 0  2.058823529411764 -4.803921568627451 0  2.254901960784314 -4.803921568627451 0  2.450980392156863 -4.803921568627451 0  2.647058823529412 -4.803921568627451 0  2.84313725490196 -4.803921568627451 0  3.03921568627451 -4.803921568627451 0  3.235294117647058 -4.803921568627451 0  3.431372549019608 -4.803921568627451 0  3.627450980392156 -4.803921568627451 0  3.823529411764707 -4.803921568627451 0  4.019607843137255 -4.803921568627451 0  4.215686274509803 -4.803921568627451 0  4.411764705882353 -4.803921568627451 0  4.607843137254902 -4.803921568627451 0  4.803921568627452 -4.803921568627451 0  5 -4.803921568627451 0  -5 -4.607843137254902 0  -4.803921568627451 -4.607843137254902 0  -4.607843137254902 -4.607843137254902 0  -4.411764705882353 -4.607843137254902 0  -4.215686274509804 -4.607843137254902 0  -4.019607843137255 -4.607843137254902 0  -3.823529411764706 -4.607843137254902 0  -3.627450980392157 -4.607843137254902 0  -3.431372549019608 -4.607843137254902 0  -3.235294117647059 -4.607843137254902 0  -3.03921568627451 -4.607843137254902 0  -2.843137254901961 -4.607843137254902 0  -2.647058823529412 -4.607843137254902 0  -2.450980392156863 -4.607843137254902 0  -2.254901960784314 -4.607843137254902 0  -2.058823529411764 -4.607843137254902 0  -1.862745098039216 -4.607843137254902 0  -1.666666666666667 -4.607843137254902 0  -1.470588235294118 -4.607843137254902 0  -1.274509803921569 -4.607843137254902 0  -1.07843137254902 -4.607843137254902 0  -0.882352941176471 -4.607843137254902 0  -0.6862745098039218 -4.607843137254902 0  -0.4901960784313726 -4.607843137254902 0  -0.2941176470588234 -4.607843137254902 0  -0.09803921568627416 -4.607843137254902 0  0.09803921568627416 -4.607843137254902 0  0.2941176470588234 -4.607843137254902 0  0.4901960784313726 -4.607843137254902 0  0.6862745098039218 -4.607843137254902 0  0.882352941176471 -4.607843137254902 0  1.078431372549019 -4.607843137254902 0  1.274509803921569 -4.607843137254902 0  1.470588235294118 -4.607843137254902 0  1.666666666666667 -4.607843137254902 0  1.862745098039215 -4.607843137254902 0  2.058823529411764 -4.607843137254902 0  2.254901960784314 -4.607843137254902 0  2.450980392156863 -4.607843137254902 0  2.647058823529412 -4.607843137254902 0  2.84313725490196 -4.607843137254902 0  3.03921568627451 -4.607843137254902 0  3.235294117647058 -4.607843137254902 0  3.431372549019608 -4.607843137254902 0  3.627450980392156 -4.607843137254902 0  3.823529411764707 -4.607843137254902 0  4.019607843137255 -4.607843137254902 0  4.215686274509803 -4.607843137254902 0  4.411764705882353 -4.607843137254902 0  4.607843137254902 -4.607843137254902 0  4.803921568627452 -4.607843137254902 0  5 -4.607843137254902 0  -5 -4.411764705882353 0  -4.803921568627451 -4.411764705882353 0  -4.607843137254902 -4.411764705882353 0  -4.411764705882353 -4.411764705882353 0  -4.215686274509804 -4.411764705882353 0  -4.019607843137255 -4.411764705882353 0  -3.823529411764706 -4.411764705882353 0  -3.627450980392157 -4.411764705882353 0  -3.431372549019608 -4.411764705882353 0  -3.235294117647059 -4.411764705882353 0  -3.03921568627451 -4.411764705882353 0  -2.843137254901961 -4.411764705882353 0  -2.647058823529412 -4.411764705882353 0  -2.450980392156863 -4.411764705882353 0  -2.254901960784314 -4.411764705882353 0  -2.058823529411764 -4.411764705882353 0  -1.862745098039216 -4.411764705882353 0  -1.666666666666667 -4.411764705882353 0  -1.470588235294118 -4.411764705882353 0  -1.274509803921569 -4.411764705882353 0  -1.07843137254902 -4.411764705882353 0  -0.882352941176471 -4.411764705882353 0  -0.6862745098039218 -4.411764705882353 0  -0.4901960784313726 -4.411764705882353 0  -0.2941176470588234 -4.411764705882353 0  -0.09803921568627416 -4.411764705882353 0  0.09803921568627416 -4.411764705882353 0  0.2941176470588234 -4.411764705882353 0  0.4901960784313726 -4.411764705882353 0  0.6862745098039218 -4.411764705882353 0  0.882352941176471 -4.411764705882353 0  1.078431372549019 -4.411764705882353 0  1.274509803921569 -4.411764705882353 0  1.470588235294118 -4.411764705882353 0  1.666666666666667 -4.411764705882353 0  1.862745098039215 -4.411764705882353 0  2.058823529411764 -4.411764705882353 0  2.254901960784314 -4.411764705882353 0  2.450980392156863 -4.411764705882353 0  2.647058823529412 -4.411764705882353 0  2.84313725490196 -4.411764705882353 0  3.03921568627451 -4.411764705882353 0  3.235294117647058 -4.411764705882353 0  3.431372549019608 -4.411764705882353 0  3.627450980392156 -4.411764705882353 0  3.823529411764707 -4.411764705882353 0  4.019607843137255 -4.411764705882353 0  4.215686274509803 -4.411764705882353 0  4.411764705882353 -4.411764705882353 0  4.607843137254902 -4.411764705882353 0  4.803921568627452 -4.411764705882353 0  5 -4.411764705882353 0  -5 -4.215686274509804 0  -4.803921568627451 -4.215686274509804 0  -4.607843137254902 -4.215686274509804 0  -4.411764705882353 -4.215686274509804 0  -4.215686274509804 -4.215686274509804 0  -4.019607843137255 -4.215686274509804 0  -3.823529411764706 -4.215686274509804 0  -3.627450980392157 -4.215686274509804 0  -3.431372549019608 -4.215686274509804 0  -3.235294117647059 -4.215686274509804 0  -3.03921568627451 -4.215686274509804 0  -2.843137254901961 -4.215686274509804 0  -2.647058823529412 -4.215686274509804 0  -2.450980392156863 -4.215686274509804 0  -2.254901960784314 -4.215686274509804 0  -2.058823529411764 -4.215686274509804 0  -1.862745098039216 -4.215686274509804 0  -1.666666666666667 -4.215686274509804 0  -1.470588235294118 -4.215686274509804 0  -1.274509803921569 -4.215686274509804 0  -1.07843137254902 -4.215686274509804 0  -0.882352941176471 -4.215686274509804 0  -0.6862745098039218 -4.215686274509804 0  -0.4901960784313726 -4.215686274509804 0  -0.2941176470588234 -4.215686274509804 0  -0.09803921568627416 -4.215686274509804 0  0.09803921568627416 -4.215686274509804 0  0.2941176470588234 -4.215686274509804 0  0.4901960784313726 -4.215686274509804 0  0.6862745098039218 -4.215686274509804 0  0.882352941176471 -4.215686274509804 0  1.078431372549019 -4.215686274509804 0  1.274509803921569 -4.215686274509804 0  1.470588235294118 -4.215686274509804 0  1.666666666666667 -4.215686274509804 0  1.862745098039215 -4.215686274509804 0  2.058823529411764 -4.215686274509804 0  2.254901960784314 -4.215686274509804 0  2.450980392156863 -4.215686274509804 0  2.647058823529412 -4.215686274509804 0  2.84313725490196 -4.215686274509804 0  3.03921568627451 -4.215686274509804 0  3.235294117647058 -4.215686274509804 0  3.431372549019608 -4.215686274509804 0  3.627450980392156 -4.215686274509804 0  3.823529411764707 -4.215686274509804 0  4.019607843137255 -4.215686274509804 0  4.215686274509803 -4.215686274509804 0  4.411764705882353 -4.215686274509804 0  4.607843137254902 -4.215686274509804 0  4.803921568627452 -4.215686274509804 0  5 -4.215686274509804 0  -5 -4.019607843137255 0  -4.803921568627451 -4.019607843137255 0  -4.607843137254902 -4.019607843137255 0  -4.411764705882353 -4.019607843137255 0  -4.215686274509804 -4.019607843137255 0  -4.019607843137255 -4.
[...]
<PointData  Scalars="f_7"> 
<DataArray  type="Float64"  Name="f_7"  format="ascii">4.0839361382077652e-02  3.2896562531773421e-01  4.9737982929193614e-01  6.1716239383891380e-01  7.0998801470612438e-01  7.8557865482742451e-01  8.4980201358103036e-01  9.0626508871920619e-01  9.5743138378810899e-01  1.0050614372497533e+00  1.0505664510334705e+00  1.0952311519023725e+00  1.1404169495297845e+00  1.1877271777864173e+00  1.2391314191984195e+00  1.2970037064900393e+00  1.3640209439528832e+00  1.4428494910157297e+00  1.5355404141534943e+00  1.6425778283487513e+00  1.7616598932271015e+00  1.8866490697058269e+00  2.0075706978568921e+00  2.1123022926234949e+00  2.1893240784455776e+00  2.2300611897111677e+00  2.2300611897112272e+00  2.1893240784456838e+00  2.1123022926235855e+00  2.0075706978569863e+00  1.8866490697059153e+00  1.7616598932271923e+00  1.6425778283487993e+00  1.5355404141535378e+00  1.4428494910157874e+00  1.3640209439529527e+00  1.2970037064900635e+00  1.2391314191984528e+00  1.1877271777864116e+00  1.1404169495297916e+00  1.0952311519023772e+00  1.0505664510334938e+00  1.0050614372497608e+00  9.5743138378805015e-01  9.0626508871932232e-01  8.4980201358088503e-01  7.8557865482755906e-01  7.0998801470603667e-01  6.1716239383901483e-01  4.9737982929191860e-01  3.2896562531787787e-01  4.0839361382170182e-02  2.2151793696962397e-02  2.1770683852429448e-01  3.6036346755084658e-01  4.7323387345397250e-01  5.6126182448684814e-01  6.3434237788449732e-01  6.9658565580308962e-01  7.5162208224373694e-01  8.0155910545572928e-01  8.4813360921938485e-01  8.9265570075556389e-01  9.3638802647335728e-01  9.8065720674835899e-01  1.0270538559962130e+00  1.0775399110607808e+00  1.1345011652613395e+00  1.2006584553793385e+00  1.2787828175522371e+00  1.3711275321512335e+00  1.4785102279716151e+00  1.5990728884733858e+00  1.7270509277181076e+00  1.8524074594057136e+00  1.9622604462320523e+00  2.0438096690503902e+00  2.0871990209967612e+00  2.0871990209967630e+00  2.0438096690505350e+00  1.9622604462321402e+00  1.8524074594058089e+00  1.7270509277181829e+00  1.5990728884734977e+00  1.4785102279716447e+00  1.3711275321513106e+00  1.2787828175522937e+00  1.2006584553793631e+00  1.1345011652613672e+00  1.0775399110608181e+00  1.0270538559962143e+00  9.8065720674835966e-01  9.3638802647335773e-01  8.9265570075559253e-01  8.4813360921938152e-01  8.0155910545571962e-01  7.5162208224377280e-01  6.9658565580302489e-01  6.3434237788455394e-01  5.6126182448684081e-01  4.7323387345399603e-01  3.6036346755089249e-01  2.1770683852440542e-01  2.2151793697097334e-02  1.3686648849573909e-02  1.5572750380266220e-01  2.7040787842208758e-01  3.6605933613059161e-01  4.4518501015506451e-01  5.1183816028908846e-01  5.6978584688658573e-01  6.2129064117585420e-01  6.6836569764714582e-01  7.1235243529934311e-01  7.5449982598127041e-01  7.9593645889884490e-01  8.3794474778620176e-01  8.8206428161466921e-01  9.3024736500826144e-01  9.8491923289691696e-01  1.0489468315391020e+00  1.1254227808459154e+00  1.2171750440012976e+00  1.3258709286970587e+00  1.4506086030345857e+00  1.5861470582250128e+00  1.7217822172141251e+00  1.8425941546599975e+00  1.9332007079809670e+00  1.9816605405907897e+00  1.9816605405908057e+00  1.9332007079810569e+00  1.8425941546601048e+00  1.7217822172142205e+00  1.5861470582251247e+00  1.4506086030346435e+00  1.3258709286971706e+00  1.2171750440013198e+00  1.1254227808459969e+00  1.0489468315391202e+00  9.8491923289694494e-01  9.3024736500826710e-01  8.8206428161467965e-01  8.3794474778621775e-01  7.9593645889886455e-01  7.5449982598127963e-01  7.1235243529933401e-01  6.6836569764718379e-01  6.2129064117583344e-01  5.6978584688659195e-01  5.1183816028908935e-01  4.4518501015509382e-01  3.6605933613058950e-01  2.7040787842215142e-01  1.5572750380274264e-01  1.3686648849642324e-02  1.1346804789619993e-02  1.1773617698826129e-01  2.0805730808587905e-01  2.8732299680047957e-01  3.5495931456006419e-01  4.1386712273001341e-01  4.6574576830075942e-01  5.1256134253084129e-01  5.5555980631076185e-01  5.9596190194071363e-01  6.3473521195298932e-01  6.7293017061836735e-01  7.1171306531150236e-01  7.5257004518715931e-01  7.9741747207080282e-01  8.4871963855316612e-01  9.0951273512638275e-01  9.8329678651850472e-01  1.0736732616192974e+00  1.1835458468567297e+00  1.3135865754964875e+00  1.4597286737986237e+00  1.6106304956282849e+00  1.7482571646449967e+00  1.8529775434017137e+00  1.9093860765597961e+00  1.9093860765598103e+00  1.8529775434018048e+00  1.7482571646450995e+00  1.6106304956284210e+00  1.4597286737986828e+00  1.3135865754966485e+00  1.1835458468567568e+00  1.0736732616193592e+00  9.8329678651853891e-01  9.0951273512641628e-01  8.4871963855318577e-01  7.9741747207081959e-01  7.5257004518716442e-01  7.1171306531152267e-01  6.7293017061838045e-01  6.3473521195300364e-01  5.9596190194071885e-01  5.5555980631077373e-01  5.1256134253083974e-01  4.6574576830076653e-01  4.1386712273002574e-01  3.5495931456006857e-01  2.8732299680051326e-01  2.0805730808591824e-01  1.1773617698831954e-01  1.1346804789672451e-02  8.8285529668122604e-03  9.2635845864891972e-02  1.6412085694002498e-01  2.2864445584942630e-01  2.8547377783526529e-01  3.3593210401432000e-01  3.8135239441162155e-01  4.2273371822521677e-01  4.6113745035624482e-01  4.9735470458970932e-01  5.3224235984309576e-01  5.6666341501914663e-01  6.0170052691185183e-01  6.3874307769675309e-01  6.7965927462276798e-01  7.2692235240307534e-01  7.8371872594054381e-01  8.5395684319918441e-01  9.4208048578319281e-01  1.0524494978107055e+00  1.1878061879309794e+00  1.3459774690261399e+00  1.5152125011397299e+00  1.6734362584957294e+00  1.7954237028282138e+00  1.8614898377719018e+00  1.8614898377719318e+00  1.7954237028283122e+00  1.6734362584958611e+00  1.5152125011398423e+00  1.3459774690262534e+00  1.1878061879310826e+00  1.0524494978107783e+00  9.4208048578318437e-01  8.5395684319925014e-01  7.8371872594058023e-01  7.2692235240307979e-01  6.7965927462277864e-01  6.3874307769678884e-01  6.0170052691185638e-01  5.6666341501914830e-01  5.3224235984312041e-01  4.9735470458971337e-01  4.6113745035625386e-01  4.2273371822521849e-01  3.8135239441165236e-01  3.3593210401430179e-01  2.8547377783530054e-01  2.2864445584944207e-01  1.6412085694006934e-01  9.2635845864935909e-02  8.8285529668613773e-03  7.4176239850257016e-03  7.4777286319860761e-02  1.3214525001977867e-01  1.8469604388761271e-01  2.3172472484506954e-01  2.7439182087746972e-01  3.1330158698514865e-01  3.4927340394128836e-01  3.8288636503705248e-01  4.1480356095070409e-01  4.4563951002346858e-01  4.7616000304646450e-01  5.0731496754636740e-01  5.4040685192663418e-01  5.7722131953373657e-01  6.2020655309930439e-01  6.7263830305137462e-01  7.3875762767834940e-01  8.2377761650512704e-01  9.3352571486475056e-01  1.0730991007223680e+00  1.2429554036560246e+00  1.4314444493509921e+00  1.6117715603238743e+00  1.7521611308296194e+00  1.8283912300933547e+00  1.8283912300933960e+00  1.7521611308297249e+00  1.6117715603240061e+00  1.4314444493511116e+00  1.2429554036561505e+00  1.0730991007224426e+00  9.3352571486481140e-01  8.2377761650511516e-01  7.3875762767840414e-01  6.7263830305139405e-01  6.2020655309932282e-01  5.7722131953373135e-01  5.4040685192666604e-01  5.0731496754637506e-01  4.7616000304647466e-01  4.4563951002347907e-01  4.1480356095071802e-01  3.8288636503706164e-01  3.4927340394130701e-01  3.1330158698515825e-01  2.7439182087748537e-01  2.3172472484507595e-01  1.8469604388763744e-01  1.3214525001981314e-01  7.4777286319909972e-02  7.4176239850512393e-03  6.1791849238814808e-03  6.1909532067419781e-02  1.0847453500969088e-01  1.5141117392547462e-01  1.9022851919110181e-01  2.2585148118851758e-01  2.5882604466730613e-01  2.8959667514033599e-01  3.1863689399972472e-01  3.4636037262431169e-01  3.7328769057086142e-01  4.0003865044817805e-01  4.2747273385784301e-01  4.5678161294875907e-01  4.8965913254704280e-01  5.2848443444693571e-01  5.7655316792427547e-01  6.3832049744887320e-01  7.1960328876969226e-01  8.2751662694206163e-01  9.6949044715820276e-01  1.1491194835224541e+00  1.3555041105173320e+00  1.5568933719140119e+00  1.7146451945346852e+00  1.8003281144213874e+00  1.8003281144214052e+00  1.7146451945347967e+00  1.5568933719141502e+00  1.3555041105174463e+00  1.1491194835225615e+00  9.6949044715827282e-01  8.2751662694210848e-01  7.1960328876967061e-01  6.3832049744893116e-01  5.7655316792427580e-01  5.2848443444695747e-01  4.8965913254705173e-01  4.5678161294877490e-01  4.2747273385785572e-01  4.0003865044819714e-01  3.7328769057086003e-01  3.4636037262433694e-01  3.1863689399974343e-01  2.8959667514034099e-01  2.5882604466732784e-01  2.2585148118852538e-01  1.9022851919111466e-01  1.5141117392549602e-01  1.0847453500971582e-01  6.1909532067455135e-02  6.1791849239087029e-03  5.3364529169675013e-03  5.2377275683282848e-02  9.0818351115833973e-02  1.2617246967483073e-01  1.5815566458142838e-01  1.8776159464205538e-01  2.1538936367955303e-01  2.4144803723046532e-01  2.6622408754388294e-01  2.9006324733978800e-01  3.1335315093457317e-01  3.3663882892953989e-01  3.6067519644409857e-01  3.8655956158961624e-01  4.1587507179274630e-01  4.5090261725971081e-01  4.9488601119132875e-01  5.5236833739840929e-01  6.2955547931897782e-01  7.3454221133416153e-01  8.7676905007162798e-01  1.0630359185338512e+00  1.2838348538578184e+00  1.5028722091909392e+00  1.6751623342224895e+00  1.7687043072444275e+00  1.7687043072444542e+00  1.6751623342225854e+00  1.5028722091910813e+00  1.2838348538579321e+00  1.0630359185339129e+00  8.7676905007169836e-01  7.3454221133419595e-01  6.2955547931895528e-01  5.5236833739844937e-01  4.9488601119133457e-01  4.5090261725972614e-01  4.1587507179275185e-01  3.8655956158963911e-01  3.6067519644411095e-01  3.3663882892955127e-01  3.1335315093459126e-01  2.9006324733980748e-01  2.6622408754390831e-01  2.4144803723047398e-01  2.1538936367958209e-01  1.8776159464205203e-01  1.5815566458144645e-01  1.2617246967484594e-01  9.0818351115859286e-02  5.2377275683311630e-02  5.3364529169851235e-03  4.6541502066844188e-03  4.5396796387065549e-02  7.7681704817647856e-02  1.0711735572951293e-01  1.3354876245707345e-01  1.5801945539533183e-01  1.8098739709103143e-01  2.0279293797159784e-01  2.2370856516131590e-01  2.4399251261932786e-01  2.6398786127769991e-01  2.8416015956706642e-01  3.0519441631321503e-01  3.2809078008902581e-01  3.5432239663418774e-01  3.8604374149302778e-01  4.2638842878583338e-01  4.7986281501352201e-01  5.5283729957774141e-01  6.5401197056625593e-01  7.9427290926558658e-01  9.8320380360548298e-01  1.2130934959605355e+00  1.4444988686598086e+00  1.6273892758047823e+00  1.7268053727212842e+00  1.7268053727213228e+00  1.6273892758048956e+00  1.4444988686599149e+00  1.2130934959606294e+00  9.8320380360552806e-01  7.9427290926562033e-01  6.5401197056627225e-01  5.5283729957773253e-01  4.7986281501353412e-01  4.2638842878584438e-01  3.8604374149304282e-01  3.5432239663419668e-01  3.2809078008905063e-01  3.0519441631323579e-01  2.8416015956707513e-01  2.6398786127773144e-01  2.4399251261934723e-01  2.2370856516133455e-01  2.0279293797162001e-01  1.8098739709104111e-01  1.5801945539535511e-01  1.3354876245707203e-01  1.0711735572954166e-01  7.7681704817660957e-02  4.5396796387094568e-02  4.6541502067069789e-03  4.1567560684813822e-03  4.0363006027555846e-02  6.8131612126767688e-02  9.3012867059661386e-02  1.1494824589687230e-01  1.3509250151065352e-01  1.5396295599552845e-01  1.7196322202531769e-01  1.8935687660784611e-01  2.0640564920747054e-01  2.2341484294560982e-01  2.4081608009273303e-01  2.5923155975844975e-01  2.7958181962036371e-01  3.0322637906308270e-01  3.3217812842853062e-01  3.6940709915494713e-01  4.1927078122178324e-01  4.8808578844061579e-01  5.8473784249055893e-01  7.2088994710048160e-01  9.0791915070293949e-01  1.1402101951245325e+00  1.3773848787692160e+00  1.5665857767852800e+00  1.6700838461945595e+00  1.6700838461946073e+00  1.5665857767853832e+00  1.3773848787692977e+00  1.1402101951245971e+00  9.0791915070296414e-01  7.2088994710048215e-01  5.8473784249054706e-01  4.8808578844062012e-01  4.1927078122178063e-01  3.6940709915495862e-01  3.3217812842854316e-01  3.0322637906310229e-01  2.7958181962038553e-01  2.5923155975847961e-01  2.4081608009276190e-01  2.2341484294563399e-01  2.0640564920750554e-01  1.8935687660786235e-01  1.7196322202534087e-01  1.5396295599554385e-01  1.3509250151066282e-01  1.1494824589688930e-01  9.3012867059679816e-02  6.8131612126784022e-02  4.0363006027575414e-02  4.1567560684935088e-03  3.7725789865717084e-03  3.6964655969670503e-02  6.1561588865496009e-02  8.3039228097246981e-02  1.0136801215609285e-01  1.1782282382170525e-01  1.3305986887233809e-01  1.4757585117684480e-01  1.6171007088682979e-01  1.7574953532194637e-01  1.9001284268888055e-01  2.0491296551282062e-01  2.2103598338146277e-01  2.3923191465584503e-01  2.6075354522439492e-01  2.8745815566699140e-01  3.2210931443279089e-01  3.6881732133442358e-01  4.3361963076998089e-01  5.2521418144429433e-01  6.5517830919519293e-01  8.3556305295004429e-01  1.0625143279128313e+00  1.2981980337772618e+00  1.4896967994082593e+00  1.5961151090029231e+00  1.5961151090029682e+00  1.4896967994083641e+00  1.2981980337773245e+00  1.0625143279128721e+00  8.3556305295001498e-01  6.5517830919515785e-01  5.2521418144426613e-01  4.3361963076997756e-01  3.6881732133442185e-01  3.2210931443280066e-01  2.8745815566701943e-01  2.6075354522441935e-01  2.3923191465588040e-01  2.2103598338150016e-01  2.0491296551285665e-01  1.9001284268891341e-01  1.7574953532198651e-01  1.6171007088685252e-01  1.4757585117687438e-01  1.3305986887235755e-01  1.1782282382171999e-01  1.0136801215609763e-01  8.3039228097275708e-02  6.1561588865505938e-02  3.6964655969690667e-02  3.7725789865712830e-03  3.4938591420426070e-03  3.5000732057593804e-02  5.7634262918903112e-02  7.6699491026388775e-02  9.2151470646315778e-02  1.0541276559165243e-01  1.1732218663335925e-01  1.2854843244584818e-01  1.3954843488312374e-01  1.5069072778308251e-01  1.6233237391253971e-01  1.7490020284924040e-01  1.8896107108525462e-01  2.0531221011833645e-01  2.2510501916077494e-01  2.5003319677416869e-01  2.8262061191956989e-01  3.2662632595109314e-01  3.8765057615012094e-01  4.7372320754231395e-01  5.9574508034886686e-01  7.6472370229582642e-01  9.7867379839715463e-01  1.2048516341746769e+00  1.3951174746881791e+00  1.5054219766764545e+00  1.5054219766765122e+00  1.3951174746883019e+00  1.2048516341747355e+00  9.7867379839713109e-01  7.6472370229576381e-01  5.9574508034880957e-01  4.7372320754227554e-01  3.8765057615010973e-01  3.2662632595109325e-01  2.8262061191959709e-01  2.5003319677420288e-01  2.2510501916081174e-01  2.0531221011838635e-01  1.8896107108530144e-01  1.7490020284929136e-01  1.6233237391258218e-01  1.5069072778312304e-01  1.3954843488316016e-01  1.2854843244588018e-01  1.1732218663337407e-01  1.0541276559167466e-01  9.2151470646324590e-02  7.6699491026407357e-02  5.7634262918913312e-02  3.5000732057606974e-02  3.4938591420654698e-03  3.3009496910527203e-03  3.4400172857527653e-02  5.6194745843995204e-02  7.3742662460996825e-02  8.6924362776208033e-02  9.7338739695171803e-02  1.0607764568732253e-01  1.1404746959872451e-01  1.2189085386629411e-01  1.3009887016606855e-01  1.3910672884789776e-01  1.4937951884231579e-01  1.6148927201633095e-01  1.7619610266031913e-01  1.9455842582472729e-01  2.1810289239733199e-01  2.4907141821101042e-01  2.9081824615328178e-01  3.4826236895779966e-01  4.2856092046097921e-01  5.4096177950535851e-01  6.9484870573200697e-01  8.8835637153462166e-01  1.0978634159811838e+00  1.2841451798410535e+00  1.4014052727205839e+00  1.4014052727207347e+00  1.2841451798412489e+00  1.0978634159811895e+00  8.8835637153453550e-01  6.9484870573192270e-01  5.4096177950528535e-01  4.2856092046093419e-01  3.4826236895779278e-01  2.9081824615330154e-01  2.4907141821104886e-01  2.1810289239738564e-01  1.9455842582478328e-01  1.7619610266038718e-01  1.6148927201639782e-01  1.4937951884237760e-01  1.3910672884795564e-01  1.3009887016611763e-01  1.2189085386633929e-01  1.1404746959876007e-01  1.0607764568734251e-01  9.7338739695197116e-02  8.6924362776223271e-02  7.3742662461010022e-02  5.6194745844003968e-02  3.4400172857528555e-02  3.3009496910701343e-03  3.1966084931146842e-03  3.5168991716134142e-02  5.7236738417447836e-02  7.4108473202245909e-02  8.5531465271140389e-02  9.3317744906096817e-02  9.8888010350236782e-02  1.0347325690068930e-01  1.0796853218495546e-01  1.1304211330938214e-01  1.1924349006213911e-01  1.2710784989525192e-01  1.3723649762117149e-01  1.5037086549357520e-01  1.6748740896042849e-01  1.8993257615519593e-01  2.1965237344322011e-01  2.5947699354637405e-01  3.1359154838838288e-01  3.8777061641925914e-01  4.8948470327182464e-01  6.2503277650450184e-01  7.9279820057131312e-01  9.7520730491875796e-01  1.1492150002849575e+00  1.3011211295535436e+00  1.3011211295533796e+00  1.1492150002850561e+00  9.7520730491873076e-01  7.9279820057121897e-01  6.2503277650441658e-01  4.8948470327175869e-01  3.8777061641922972e-01  3.1359154838839559e-01  2.5947699354641451e-01  2.1965237344327615e-01  1.8993257615528031e-01  1.6748740896051084e-01  1.5037086549367065e-01  1.3723649762125650e-01  1.2710784989533058e-01  1.1924349006221900e-01  1.1304211330944347e-01  1.0796853218500940e-01  1.0347325690073007e-01  9.8888010350274447e-02  9.3317744906117356e-02  8.5531465271163176e-02  7.4108473202261327e-02  5.7236738417455905e-02  3.5168991716134822e-02  3.1966084931241835e-03  3.1953193500490144e-03  3.7372180651180663e-02  6.0847228660419320e-02  7.7871084076256300e-02  8.7986486195925001e-02  9.3257642889381334e-02  9.5522386418486940e-02  9.6431773115178365e-02  9.7215197824153055e-02  9.8776165867398596e-02  1.0182360412370346e-01  1.0699769600364041e-01  1.1495806193245650e-01  1.2645134685999107e-01  1.4237667835463957e-01  1.6390148768732607e-01  1.9261819408599493e-01  2.3081892399159012e-01  2.8172131834015851e-01  3.4973533964405951e-01  4.3989717188563754e-01  5.5567399234643144e-01  6.9418840775328261e-01  8.3858718425763645e-01  9.7144898967696158e-01  9.1542975052381526e-01  9.1542975052401576e-01  9.7144898967715476e-01  8.3858718425763201e-01  6.9418840775326596e-01  5.5567399234638593e-01  4.3989717188562222e-01  3.4973533964406467e-01  2.8172131834019631e-01  2.3081892399166135e-01  1.9261819408608807e-01  1.6390148768743951e-01  1.4237667835476092e-01  1.2645134686011456e-01  1.1495806193257394e-01  1.0699769600374708e-01  1.0182360412380576e-01  9.8776165867474189e-02  9.7215197824225441e-02  9.6431773115226035e-02  9.5522386418529615e-02  9.3257642889408215e-02  8.7986486195946831e-02  7.7871084076272273e-02  6.0847228660421825e-02  3.7372180651204873e-02  3.1953193500475563e-03  3.3359438475650061e-03  4.1080571642555623e-02  6.7137604855430202e-02  8.5157299744229503e-02  9.4397103486458342e-02  9.7201220172712877e-02  9.5913540134061379e-02  9.2712267121568104e-02  8.9252441050148068e-02  8.6743403434036748e-02  8.6105935545407408e-02  8.8128526767341661e-02  9.3569882158462861e-02  1.0320489306174881e-01  1.1787375697603754e-01  1.3853948089110601e-01  1.6643062298174388e-01  2.0319173902626531e-01  2.5110659655309320e-01  3.1300752549400479e-01  3.9179884678265842e-01  4.8838500543522823e-01  5.9804071630221201e-01  7.0776789743752777e-01  7.9323885373097158e-01  7.9992895608533576e-01  7.9992895608566883e-01  7.9323885373102221e-01  7.0776789743766655e-01  5.9804071630228317e-01  4.8838500543525781e-01  3.9179884678269122e-01  3.1300752549406202e-01  2.5110659655317036e-01  2.0319173902637791e-01  1.6643062298188049e-01  1.3853948089126111e-01  1.1787375697620141e-01  1.0320489306191601e-01  9.3569882158620249e-02  8.8128526767490681e-02  8.6105935545520845e-02  8.6743403434143218e-02  8.9252441050226047e-02  9.2712267121636716e-02  9.5913540134101180e-02  9.7201220172757299e-02  9.4397103486473039e-02  8.5157299744239731e-02  6.7137604855447966e-0