<?xml version="1.0"?>
<VTKFile type="UnstructuredGrid"  version="0.1"  >
<UnstructuredGrid>
<Piece  NumberOfPoints="5305" NumberOfCells="10404">
<Points>
<DataArray  type="Float64"  NumberOfComponents="3"  format="ascii">-5 -5 0  -4.803921568627451 -5 0  -4.607843137254902 -5 0  -4.411764705882353 -5 0  -4.215686274509804 -5 0  -4.019607843137255 -5 0  -3.823529411764706 -5 0  -3.627450980392157 -5 0  -3.431372549019608 -5 0  -3.235294117647059 -5 0  -3.03921568627451 -5 0  -2.843137254901961 -5 0  -2.647058823529412 -5 0  -2.450980392156863 -5 0  -2.254901960784314 -5 0  -2.058823529411764 -5 0  -1.862745098039216 -5 0  -1.666666666666667 -5 0  -1.470588235294118 -5 0  -1.274509803921569 -5 0  -1.07843137254902 -5 0  -0.882352941176471 -5 0  -0.6862745098039218 -5 0  -0.4901960784313726 -5 0  -0.2941176470588234 -5 0  -0.09803921568627416 -5 0  0.09803921568627416 -5 0  0.2941176470588234 -5 0  0.4901960784313726 -5 0  0.6862745098039218 -5 0  0.882352941176471 -5 0  1.078431372549019 -5 0  1.274509803921569 -5 0  1.470588235294118 -5 0  1.666666666666667 -5 0  1.862745098039215 -5 0  2.058823529411764 -5 0  2.254901960784314 -5 0  2.450980392156863 -5 0  2.647058823529412 -5 0  2.84313725490196 -5 0  3.03921568627451 -5 0  3.235294117647058 -5 0  3.431372549019608 -5 0  3.627450980392156 -5 0  3.823529411764707 -5 0  4.019607843137255 -5 0  4.215686274509803 -5 0  4.411764705882353 -5 0  4.607843137254902 -5 0  4.803921568627452 -5 0  5 -5 0  -5 -4.803921568627451 0  -4.803921568627451 -4.803921568627451 0  -4.607843137254902 -4.803921568627451 0  -4.411764705882353 -4.803921568627451 0  -4.215686274509804 -4.803921568627451 0  -4.019607843137255 -4.803921568627451 0  -3.823529411764706 -4.803921568627451 0  -3.627450980392157 -4.803921568627451 0  -3.431372549019608 -4.803921568627451 0  -3.235294117647059 -4.803921568627451 0  -3.03921568627451 -4.803921568627451 0  -2.843137254901961 -4.803921568627451 0  -2.647058823529412 -4.803921568627451 0  -2.450980392156863 -4.803921568627451 0  -2.254901960784314 -4.803921568627451 0  -2.058823529411764 -4.803921568627451 0  -1.862745098039216 -4.803921568627451 0  -1.666666666666667 -4.803921568627451 0  -1.470588235294118 -4.803921568627451 0  -1.274509803921569 -4.803921568627451 0  -1.07843137254902 -4.803921568627451 0  -0.882352941176471 -4.803921568627451 0  -0.6862745098039218 -4.803921568627451 0  -0.4901960784313726 -4.803921568627451 0  -0.2941176470588234 -4.803921568627451 0  -0.09803921568627416 -4.803921568627451 0  0.09803921568627416 -4.803921568627451 0  0.2941176470588234 -4.803921568627451 0  0.4901960784313726 -4.803921568627451 0  0.6862745098039218 -4.803921568627451 0  0.882352941176471 -4.803921568627451 0  1.078431372549019 -4.803921568627451 0  1.274509803921569 -4.803921568627451 0  1.470588235294118 -4.803921568627451 0  1.666666666666667 -4.803921568627451 0  1.862745098039215 -4.803921568627451 0  2.058823529411764 -4.803921568627451 0  2.254901960784314 -4.803921568627451 0  2.450980392156863 -4.803921568627451 0  2.647058823529412 -4.803921568627451 0  2.84313725490196 -4.803921568627451 0  3.03921568627451 -4.803921568627451 0  3.235294117647058 -4.803921568627451 0  3.431372549019608 -4.803921568627451 0  3.627450980392156 -4.803921568627451 0  3.823529411764707 -4.803921568627451 0  4.019607843137255 -4.803921568627451 0  4.215686274509803 -4.803921568627451 0  4.411764705882353 -4.803921568627451 0  4.607843137254902 -4.803921568627451 0  4.803921568627452 -4.803921568627451 0  5 -4.803921568627451 0  -5 -4.607843137254902 0  -4.803921568627451 -4.607843137254902 0  -4.607843137254902 -4.607843137254902 0  -4.411764705882353 -4.607843137254902 0  -4.215686274509804 -4.607843137254902 0  -4.019607843137255 -4.607843137254902 0  -3.823529411764706 -4.607843137254902 0  -3.627450980392157 -4.607843137254902 0  -3.431372549019608 -4.607843137254902 0  -3.235294117647059 -4.607843137254902 0  -3.03921568627451 -4.607843137254902 0  -2.843137254901961 -4.607843137254902 0  -2.647058823529412 -4.607843137254902 0  -2.450980392156863 -4.607843137254902 0  -2.254901960784314 -4.607843137254902 0  -2.058823529411764 -4.607843137254902 0  -1.862745098039216 -4.607843137254902 0  -1.666666666666667 -4.607843137254902 0  -1.470588235294118 -4.607843137254902 0  -1.274509803921569 -4.607843137254902 0  -1.07843137254902 -4.607843137254902 0  -0.882352941176471 -4.607843137254902 0  -0.6862745098039218 -4.607843137254902 0  -0.4901960784313726 -4.607843137254902 0  -0.2941176470588234 -4.607843137254902 0  -0.09803921568627416 -4.607843137254902 0  0.09803921568627416 -4.607843137254902 0  0.2941176470588234 -4.607843137254902 0  0.4901960784313726 -4.607843137254902 0  0.6862745098039218 -4.607843137254902 0  0.882352941176471 -4.607843137254902 0  1.078431372549019 -4.607843137254902 0  1.274509803921569 -4.607843137254902 0  1.470588235294118 -4.607843137254902 0  1.666666666666667 -4.607843137254902 0  1.862745098039215 -4.607843137254902 0  2.058823529411764 -4.607843137254902 0  2.254901960784314 -4.607843137254902 0  2.450980392156863 -4.607843137254902 0  2.647058823529412 -4.607843137254902 0  2.84313725490196 -4.607843137254902 0  3.03921568627451 -4.607843137254902 0  3.235294117647058 -4.607843137254902 0  3.431372549019608 -4.607843137254902 0  3.627450980392156 -4.607843137254902 0  3.823529411764707 -4.607843137254902 0  4.019607843137255 -4.607843137254902 0  4.215686274509803 -4.607843137254902 0  4.411764705882353 -4.607843137254902 0  4.607843137254902 -4.607843137254902 0  4.803921568627452 -4.607843137254902 0  5 -4.607843137254902 0  -5 -4.411764705882353 0  -4.803921568627451 -4.411764705882353 0  -4.607843137254902 -4.411764705882353 0  -4.411764705882353 -4.411764705882353 0  -4.215686274509804 -4.411764705882353 0  -4.019607843137255 -4.411764705882353 0  -3.823529411764706 -4.411764705882353 0  -3.627450980392157 -4.411764705882353 0  -3.431372549019608 -4.411764705882353 0  -3.235294117647059 -4.411764705882353 0  -3.03921568627451 -4.411764705882353 0  -2.843137254901961 -4.411764705882353 0  -2.647058823529412 -4.411764705882353 0  -2.450980392156863 -4.411764705882353 0  -2.254901960784314 -4.411764705882353 0  -2.058823529411764 -4.411764705882353 0  -1.862745098039216 -4.411764705882353 0  -1.666666666666667 -4.411764705882353 0  -1.470588235294118 -4.411764705882353 0  -1.274509803921569 -4.411764705882353 0  -1.07843137254902 -4.411764705882353 0  -0.882352941176471 -4.411764705882353 0  -0.6862745098039218 -4.411764705882353 0  -0.4901960784313726 -4.411764705882353 0  -0.2941176470588234 -4.411764705882353 0  -0.09803921568627416 -4.411764705882353 0  0.09803921568627416 -4.411764705882353 0  0.2941176470588234 -4.411764705882353 0  0.4901960784313726 -4.411764705882353 0  0.6862745098039218 -4.411764705882353 0  0.882352941176471 -4.411764705882353 0  1.078431372549019 -4.411764705882353 0  1.274509803921569 -4.411764705882353 0  1.470588235294118 -4.411764705882353 0  1.666666666666667 -4.411764705882353 0  1.862745098039215 -4.411764705882353 0  2.058823529411764 -4.411764705882353 0  2.254901960784314 -4.411764705882353 0  2.450980392156863 -4.411764705882353 0  2.647058823529412 -4.411764705882353 0  2.84313725490196 -4.411764705882353 0  3.03921568627451 -4.411764705882353 0  3.235294117647058 -4.411764705882353 0  3.431372549019608 -4.411764705882353 0  3.627450980392156 -4.411764705882353 0  3.823529411764707 -4.411764705882353 0  4.019607843137255 -4.411764705882353 0  4.215686274509803 -4.411764705882353 0  4.411764705882353 -4.411764705882353 0  4.607843137254902 -4.411764705882353 0  4.803921568627452 -4.411764705882353 0  5 -4.411764705882353 0  -5 -4.215686274509804 0  -4.803921568627451 -4.215686274509804 0  -4.607843137254902 -4.215686274509804 0  -4.411764705882353 -4.215686274509804 0  -4.215686274509804 -4.215686274509804 0  -4.019607843137255 -4.215686274509804 0  -3.823529411764706 -4.215686274509804 0  -3.627450980392157 -4.215686274509804 0  -3.431372549019608 -4.215686274509804 0  -3.235294117647059 -4.215686274509804 0  -3.03921568627451 -4.215686274509804 0  -2.843137254901961 -4.215686274509804 0  -2.647058823529412 -4.215686274509804 0  -2.450980392156863 -4.215686274509804 0  -2.254901960784314 -4.215686274509804 0  -2.058823529411764 -4.215686274509804 0  -1.862745098039216 -4.215686274509804 0  -1.666666666666667 -4.215686274509804 0  -1.470588235294118 -4.215686274509804 0  -1.274509803921569 -4.215686274509804 0  -1.07843137254902 -4.215686274509804 0  -0.882352941176471 -4.215686274509804 0  -0.6862745098039218 -4.215686274509804 0  -0.4901960784313726 -4.215686274509804 0  -0.2941176470588234 -4.215686274509804 0  -0.09803921568627416 -4.215686274509804 0  0.09803921568627416 -4.215686274509804 0  0.2941176470588234 -4.215686274509804 0  0.4901960784313726 -4.215686274509804 0  0.6862745098039218 -4.215686274509804 0  0.882352941176471 -4.215686274509804 0  1.078431372549019 -4.215686274509804 0  1.274509803921569 -4.215686274509804 0  1.470588235294118 -4.215686274509804 0  1.666666666666667 -4.215686274509804 0  1.862745098039215 -4.215686274509804 0  2.058823529411764 -4.215686274509804 0  2.254901960784314 -4.215686274509804 0  2.450980392156863 -4.215686274509804 0  2.647058823529412 -4.215686274509804 0  2.84313725490196 -4.215686274509804 0  3.03921568627451 -4.215686274509804 0  3.235294117647058 -4.215686274509804 0  3.431372549019608 -4.215686274509804 0  3.627450980392156 -4.215686274509804 0  3.823529411764707 -4.215686274509804 0  4.019607843137255 -4.215686274509804 0  4.215686274509803 -4.215686274509804 0  4.411764705882353 -4.215686274509804 0  4.607843137254902 -4.215686274509804 0  4.803921568627452 -4.215686274509804 0  5 -4.215686274509804 0  -5 -4.019607843137255 0  -4.803921568627451 -4.019607843137255 0  -4.607843137254902 -4.019607843137255 0  -4.411764705882353 -4.019607843137255 0  -4.215686274509804 -4.019607843137255 0  -4.019607843137255 -4.
[...]
<PointData  Scalars="f_1200156"> 
<DataArray  type="Float64"  Name="f_1200156"  format="ascii">2.7815276551328511e-02  2.8948179113426475e-01  4.3695629539972991e-01  5.4337748637784122e-01  6.2672803630921303e-01  6.9578307221605873e-01  7.5523198314250695e-01  8.0791565237300778e-01  8.5559630263454678e-01  8.9926397446941098e-01  9.3920310534211970e-01  9.7497052829957320e-01  1.0054218897975407e+00  1.0289342798709669e+00  1.0439049653011139e+00  1.0494182908224015e+00  1.0457644451627646e+00  1.0344965696281927e+00  1.0180000326829568e+00  9.9886049235522845e-01  9.7936329639261821e-01  9.6126484033009529e-01  9.4578209367972643e-01  9.3368752569594493e-01  9.2543172958036968e-01  9.2125313606587667e-01  9.2125313606587189e-01  9.2543172958035913e-01  9.3368752569593094e-01  9.4578209367970845e-01  9.6126484033007087e-01  9.7936329639259467e-01  9.9886049235520558e-01  1.0180000326829366e+00  1.0344965696281767e+00  1.0457644451627575e+00  1.0494182908224008e+00  1.0439049653011188e+00  1.0289342798709735e+00  1.0054218897975482e+00  9.7497052829958264e-01  9.3920310534212581e-01  8.9926397446941664e-01  8.5559630263455100e-01  8.0791565237300922e-01  7.5523198314250617e-01  6.9578307221605784e-01  6.2672803630921203e-01  5.4337748637784100e-01  4.3695629539972791e-01  2.8948179113426303e-01  2.7815276551327490e-02  -1.9424456481883312e-03  1.6732214323362019e-01  2.9800498631985695e-01  3.9733584462055860e-01  4.7723890335016383e-01  5.4417740791617419e-01  6.0212763767106992e-01  6.5358776207333313e-01  7.0014342233490101e-01  7.4268204255801695e-01  7.8143859320820741e-01  8.1597697124343271e-01  8.4522800020815103e-01  8.6770754123124028e-01  8.8197603586260731e-01  8.8723404947370099e-01  8.8377762546757765e-01  8.7304741061013513e-01  8.5725163742517463e-01  8.3880730958991745e-01  8.1988739842632341e-01  8.0220278854453630e-01  7.8697796157988287e-01  7.7502237765385029e-01  7.6683013452322180e-01  7.6267415433410479e-01  7.6267415433410135e-01  7.6683013452321103e-01  7.7502237765383608e-01  7.8697796157986533e-01  8.0220278854451044e-01  8.1988739842629910e-01  8.3880730958989536e-01  8.5725163742515442e-01  8.7304741061011959e-01  8.8377762546757010e-01  8.8723404947370199e-01  8.8197603586261220e-01  8.6770754123124705e-01  8.4522800020816069e-01  8.1597697124344015e-01  7.8143859320821485e-01  7.4268204255802128e-01  7.0014342233490390e-01  6.5358776207333569e-01  6.0212763767106903e-01  5.4417740791617342e-01  4.7723890335016361e-01  3.9733584462055727e-01  2.9800498631985556e-01  1.6732214323361763e-01  -1.9424456481890759e-03  2.0562485151428902e-04  1.0768247965472269e-01  2.0613003186955270e-01  2.9001622919044351e-01  3.6123047334580377e-01  4.2267452290860352e-01  4.7666328413363085e-01  5.2489699078999130e-01  5.6852446103391319e-01  6.0818647176728924e-01  6.4400436833098895e-01  6.7556307949560535e-01  7.0196136686950505e-01  7.2201056820122911e-01  7.3460533124844385e-01  7.3917490768096517e-01  7.3601556479324171e-01  7.2632635584998950e-01  7.1193803191053184e-01  6.9490158748941666e-01  6.7713872024752320e-01  6.6025482560925708e-01  6.4549102717954387e-01  6.3374436426575731e-01  6.2561543840800171e-01  6.2146616985956504e-01  6.2146616985955894e-01  6.2561543840799305e-01  6.3374436426574454e-01  6.4549102717952589e-01  6.6025482560923221e-01  6.7713872024750021e-01  6.9490158748939723e-01  7.1193803191051175e-01  7.2632635584997640e-01  7.3601556479323516e-01  7.3917490768096261e-01  7.3460533124844651e-01  7.2201056820123699e-01  7.0196136686951316e-01  6.7556307949561345e-01  6.4400436833099606e-01  6.0818647176729435e-01  5.6852446103391596e-01  5.2489699078999308e-01  4.7666328413362985e-01  4.2267452290860402e-01  3.6123047334580288e-01  2.9001622919044179e-01  2.0613003186955162e-01  1.0768247965472087e-01  2.0562485151339537e-04  -2.3257077430570376e-04  7.2067716812781568e-02  1.4415365326066537e-01  2.1122953897977906e-01  2.7171765175046658e-01  3.2582680295860655e-01  3.7433692480290326e-01  4.1806077121988305e-01  4.5763249452836696e-01  4.9339987372474486e-01  5.2535896266279014e-01  5.5312729514147507e-01  5.7599299913953950e-01  5.9307523867035172e-01  6.0359618036567575e-01  6.0719097638613051e-01  6.0412916004816875e-01  5.9534201212261606e-01  5.8225249088635644e-01  5.6650783576215502e-01  5.4974133760917376e-01  5.3343292950854126e-01  5.1885190746130572e-01  5.0702540752594993e-01  4.9871897139388305e-01  4.9443896898665435e-01  4.9443896898665279e-01  4.9871897139387217e-01  5.0702540752593206e-01  5.1885190746128573e-01  5.3343292950851495e-01  5.4974133760915267e-01  5.6650783576213382e-01  5.8225249088633879e-01  5.9534201212260307e-01  6.0412916004816186e-01  6.0719097638612951e-01  6.0359618036567808e-01  5.9307523867035772e-01  5.7599299913954705e-01  5.5312729514148340e-01  5.2535896266279714e-01  4.9339987372474997e-01  4.5763249452837051e-01  4.1806077121988505e-01  3.7433692480290326e-01  3.2582680295860622e-01  2.7171765175046531e-01  2.1122953897977637e-01  1.4415365326066418e-01  7.2067716812779667e-02  -2.3257077430444904e-04  -3.2578604778466728e-04  4.7737258129504537e-02  1.0008595139003158e-01  1.5252461641270035e-01  2.0248469432823987e-01  2.4882142407302577e-01  2.9125111919493235e-01  3.2987186867247031e-01  3.6486371006894114e-01  3.9631263708858622e-01  4.2410867452680395e-01  4.4790785865371324e-01  4.6716499184919852e-01  4.8124940199039834e-01  4.8962879975803902e-01  4.9207041411495739e-01  4.8878284550477530e-01  4.8044119456861201e-01  4.6809506746080182e-01  4.5301679448359028e-01  4.3656418133730468e-01  4.2010217646570142e-01  4.0496178322283582e-01  3.9236893836749170e-01  3.8334668298770119e-01  3.7863757160665112e-01  3.7863757160664313e-01  3.8334668298768937e-01  3.9236893836747461e-01  4.0496178322281323e-01  4.2010217646567899e-01  4.3656418133727981e-01  4.5301679448356902e-01  4.6809506746078305e-01  4.8044119456859852e-01  4.8878284550476853e-01  4.9207041411495578e-01  4.8962879975804258e-01  4.8124940199040389e-01  4.6716499184920568e-01  4.4790785865372085e-01  4.2410867452681145e-01  3.9631263708859160e-01  3.6486371006894519e-01  3.2987186867247253e-01  2.9125111919493268e-01  2.4882142407302477e-01  2.0248469432823862e-01  1.5252461641269693e-01  1.0008595139002895e-01  4.7737258129502746e-02  -3.2578604778508579e-04  -4.1309532419854620e-04  3.0031364551389408e-02  6.7392041220231236e-02  1.0791055347049844e-01  1.4858791076294262e-01  1.8760333603740986e-01  2.2403878415537778e-01  2.5750673363359966e-01  2.8785709229624246e-01  3.1498160733172120e-01  3.3869848820362847e-01  3.5870200094292071e-01  3.7457576622400091e-01  3.8586475511774732e-01  3.9219091549512258e-01  3.9337708145513184e-01  3.8953648797411178e-01  3.8109796505780008e-01  3.6876979094612977e-01  3.5347635800303145e-01  3.3631211714025727e-01  3.1854118105352641e-01  3.0161068788889128e-01  2.8706750471411768e-01  2.7637171286166440e-01  2.7069188185755721e-01  2.7069188185755172e-01  2.7637171286164852e-01  2.8706750471409470e-01  3.0161068788886031e-01  3.1854118105349893e-01  3.3631211714023029e-01  3.5347635800300758e-01  3.6876979094610896e-01  3.8109796505778698e-01  3.8953648797410584e-01  3.9337708145513073e-01  3.9219091549512647e-01  3.8586475511775470e-01  3.7457576622400840e-01  3.5870200094292937e-01  3.3869848820363668e-01  3.1498160733172748e-01  2.8785709229624723e-01  2.5750673363360127e-01  2.2403878415537745e-01  1.8760333603740847e-01  1.4858791076293906e-01  1.0791055347049473e-01  6.7392041220227628e-02  3.0031364551386778e-02  -4.1309532419967951e-04  -4.7298094122786574e-04  1.6581625407212475e-02  4.2430834878238274e-02  7.3459839602424443e-02  1.0636434171648933e-01  1.3892285644222455e-01  1.6984802957753722e-01  1.9845890159707952e-01  2.2439929029497679e-01  2.4744233807333457e-01  2.6736977645245286e-01  2.8391379280185525e-01  2.9675027421116312e-01  3.0553545619743305e-01  3.0997022493691556e-01  3.0987060789902832e-01  3.0522075025244627e-01  2.9619576216537596e-01  2.8316144848828467e-01  2.6667776344266830e-01  2.4754026583137889e-01  2.2688638771756800e-01  2.0632838165574910e-01  1.8792722457609473e-01  1.7392297366246348e-01  1.6631480339593813e-01  1.6631480339593180e-01  1.7392297366244264e-01  1.8792722457606470e-01  2.0632838165571143e-01  2.2688638771753131e-01  2.4754026583134514e-01  2.6667776344264088e-01  2.8316144848826380e-01  2.9619576216536364e-01  3.0522075025244150e-01  3.0987060789902982e-01  3.0997022493692156e-01  3.0553545619744216e-01  2.9675027421117361e-01  2.8391379280186618e-01  2.6736977645246279e-01  2.4744233807334418e-01  2.2439929029498115e-01  1.9845890159708279e-01  1.6984802957753620e-01  1.3892285644222241e-01  1.0636434171648500e-01  7.3459839602418892e-02  4.2430834878233389e-02  1.6581625407208155e-02  -4.7298094122803926e-04  -5.1893796946186064e-04  6.1645969883458579e-03  2.3093790694089417e-02  4.6645874502089790e-02  7.3205231025299633e-02  1.0026520631819658e-01  1.2631978430132065e-01  1.5052915864506630e-01  1.7243232755932617e-01  1.9174872835241849e-01  2.0825635170171902e-01  2.2172633149491230e-01  2.3190079656164664e-01  2.3850122617610256e-01  2.4125531873035977e-01  2.3992774165507563e-01  2.3434296541231792e-01  2.2439684857258288e-01  2.1006943028285308e-01  1.9146976594778442e-01  1.6895905074876763e-01  1.4340125207253251e-01  1.1653795732677279e-01  9.1186109420945946e-02  7.1007764980596008e-02  5.9705972100777202e-02  5.9705972100765559e-02  7.1007764980560037e-02  9.1186109420899095e-02  1.1653795732671847e-01  1.4340125207248022e-01  1.6895905074872361e-01  1.9146976594775089e-01  2.1006943028283132e-01  2.2439684857256995e-01  2.3434296541231486e-01  2.3992774165507882e-01  2.4125531873036896e-01  2.3850122617611488e-01  2.3190079656166057e-01  2.2172633149492582e-01  2.0825635170173198e-01  1.9174872835242895e-01  1.7243232755933324e-01  1.5052915864506972e-01  1.2631978430131985e-01  1.0026520631819247e-01  7.3205231025292875e-02  4.6645874502081693e-02  2.3093790694080796e-02  6.1645969883404247e-03  -5.1893796946252374e-04  -5.5038682675313648e-04  -1.8678200984830781e-03  8.1714325075209742e-03  2.5865510930662982e-02  4.7292296107814435e-02  6.9726504218535268e-02  9.1538422002792691e-02  1.1182196812701553e-01  1.3008497064926064e-01  1.4604410540395341e-01  1.5950010084346664e-01  1.7026785215477824e-01  1.7814167845614831e-01  1.8288282720205282e-01  1.8421749428141332e-01  1.8183549548596581e-01  1.7538210492380404e-01  1.6444324145159817e-01  1.4853866872597987e-01  1.2716305530971639e-01  9.9947545669475460e-02  6.7082825248109768e-02  3.0078198713854407e-02  -7.3329882004266054e-03  -3.8994225088110818e-02  -5.7481547247099085e-02  -5.7481547247116058e-02  -3.8994225088169382e-02  -7.3329882005062023e-03  3.0078198713771674e-02  6.7082825248041086e-02  9.9947545669419630e-02  1.2716305530967678e-01  1.4853866872595622e-01  1.6444324145158781e-01  1.7538210492380454e-01  1.8183549548597405e-01  1.8421749428142795e-01  1.8288282720207025e-01  1.7814167845616791e-01  1.7026785215479673e-01  1.5950010084348348e-01  1.4604410540396714e-01  1.3008497064926983e-01  1.1182196812701847e-01  9.1538422002792469e-02  6.9726504218530161e-02  4.7292296107804728e-02  2.5865510930651269e-02  8.1714325075086438e-03  -1.8678200984912617e-03  -5.5038682675276785e-04  -5.6488763038475517e-04  -7.8164465292637677e-03  -2.9945471293066159e-03  1.0125348171211895e-02  2.7370931116467104e-02  4.5874610819516423e-02  6.3960009470728829e-02  8.0721497094839181e-02  9.5688113024602894e-02  1.0860983363117116e-01  1.1933157016191200e-01  1.2771988533521070e-01  1.3361976087216124e-01  1.3682614484405567e-01  1.3705983793227233e-01  1.3393844583935233e-01  1.2693460435271783e-01  1.1531742045425761e-01  9.8083720309932537e-02  7.3911143083856254e-02  4.1246127839487563e-02  -1.2826417437846232e-03  -5.3480569417674623e-02  -1.1152417018538202e-01  -1.6502000762879010e-01  -1.9836808344162363e-01  -1.9836808344166310e-01  -1.6502000762889513e-01  -1.1152417018551194e-01  -5.3480569417799488e-02  -1.2826417438836257e-03  4.1246127839414920e-02  7.3911143083811748e-02  9.8083720309908640e-02  1.1531742045425150e-01  1.2693460435272422e-01  1.3393844583936856e-01  1.3705983793229426e-01  1.3682614484408184e-01  1.3361976087218738e-01  1.2771988533523734e-01  1.1933157016193453e-01  1.0860983363118955e-01  9.5688113024615343e-02  8.0721497094845607e-02  6.3960009470728288e-02  4.5874610819509908e-02  2.7370931116455628e-02  1.0125348171196277e-02  -2.9945471293232862e-03  -7.8164465292762091e-03  -5.6488763038438133e-04  -5.5619037261313850e-04  -1.1771668158002034e-02  -1.0724996177471413e-02  -1.1854554447617656e-03  1.2559890471815247e-02  2.7612018063520989e-02  4.2325502399562301e-02  5.5847414290874767e-02  6.7763025375871103e-02  7.7879856686257187e-02  8.6103395164944974e-02  9.2363594775426439e-02  9.6565756420286239e-02  9.8550695956429596e-02  9.8053947341588163e-02  9.4654773479848534e-02  8.7703486524596960e-02  7.6211116779365901e-02  5.8682488799322315e-02  3.2890502150398508e-02  -4.3979352853876687e-03  -5.7299326269028082e-02  -1.3014491914217041e-01  -2.2186769964484535e-01  -3.1926083057004823e-01  -3.8616158776521103e-01  -3.8616158776527637e-01  -3.1926083057027888e-01  -2.2186769964507055e-01  -1.3014491914236251e-01  -5.7299326269163474e-02  -4.3979352854734378e-03  3.2890502150349984e-02  5.8682488799303101e-02  7.6211116779367483e-02  8.7703486524614821e-02  9.4654773479875665e-02  9.8053947341622635e-02  9.8550695956467427e-02  9.6565756420323653e-02  9.2363594775462132e-02  8.6103395164975921e-02  7.7879856686282972e-02  6.7763025375888436e-02  5.5847414290884780e-02  4.2325502399562252e-02  2.7612018063514113e-02  1.2559890471800818e-02  -1.1854554447818845e-03  -1.0724996177492516e-02  -1.1771668158018280e-02  -5.5619037261331924e-04  -5.1740318610346277e-04  -1.3724826686244009e-02  -1.5181005321553222e-02  -8.4858514958549899e-03  2.1825862771890359e-03  1.4045542957080109e-02  2.5570736627754942e-02  3.5998443953326922e-02  4.4991197539036049e-02  5.2427846878338166e-02  5.8287703101265416e-02  6.2579649484871921e-02  6.5289596603339217e-02  6.6332152989251089e-02  6.5498729083002444e-02  6.2394326717133457e-02  5.6348366126052089e-02  4.6271105964673619e-02  3.0404150298463668e-02  5.8592395323919504e-03  -3.2102217046596666e-02  -9.1635017750289899e-02  -1.8408334072199370e-01  -3.2814884566875085e-01  -5.1271547881377910e-01  -6.7052048266307862e-01  -6.7052048266348430e-01  -5.1271547881414725e-01  -3.2814884566919844e-01  -1.8408334072225566e-01  -9.1635017750454101e-02  -3.2102217046685422e-02  5.8592395323507542e-03  3.0404150298455789e-02  4.6271105964689918e-02  5.6348366126085334e-02  6.2394326717177553e-02  6.5498729083054250e-02  6.6332152989304241e-02  6.5289596603391911e-02  6.2579649484920660e-02  5.8287703101307257e-02  5.2427846878372861e-02  4.4991197539059856e-02  3.5998443953341668e-02  2.5570736627758831e-02  1.4045542957073418e-02  2.1825862771733835e-03  -8.4858514958777477e-03  -1.5181005321579526e-02  -1.3724826686262518e-02  -5.1740318610467414e-04  -4.4270236710926866e-04  -1.3692041602285794e-02  -1.6540436400951781e-02  -1.2180957383456708e-02  -4.3839128874806474e-03  4.3711494788152075e-03  1.2744762614585542e-02  2.0097937289727339e-02  2.6178269380907390e-02  3.0941730722414899e-02  3.4453240487929727e-02  3.6821666327926737e-02  3.8144273800690777e-02  3.8450340738775304e-02  3.7641923145409074e-02  3.5430234904599255e-02  3.1257815490518925e-02  2.4175057789802480e-02  1.2595816122954536e-02  -6.1944472593665929e-03  -3.7280022828179493e-02  -8.9931934622515669e-02  -1.8732594606312594e-01  -3.6025776050511565e-01  -7.3842197680030419e-01  -1.1855896730053808e+00  -1.1855896730050481e+00  -7.3842197680202493e-01  -3.6025776050563585e-01  -1.8732594606344757e-01  -8.9931934622658360e-02  -3.7280022828247938e-02  -6.1944472593853028e-03  1.2595816122969646e-02  2.4175057789840419e-02  3.1257815490574777e-02  3.5430234904666340e-02  3.7641923145483619e-02  3.8450340738850300e-02  3.8144273800764288e-02  3.6821666327993566e-02  3.4453240487986883e-02  3.0941730722460311e-02  2.6178269380941213e-02  2.0097937289748419e-02  1.2744762614594337e-02  4.3711494788121735e-03  -4.3839128874963423e-03  -1.2180957383480363e-02  -1.6540436400980258e-02  -1.3692041602307425e-02  -4.4270236711083398e-04  -3.3159786871686016e-04  -1.1842989099142448e-02  -1.5165518382547975e-02  -1.2813608060147101e-02  -7.8270018300848863e-03  -2.2109003282021734e-03  2.9520703277652960e-03  7.1549604782118210e-03  1.0226283763719434e-02  1.2199022452989219e-02  1.3237103132294094e-02  1.3579052644472114e-02  1.3477241957946969e-02  1.3128306932740592e-02  1.2603211729632529e-02  1.1790840045273926e-02  1.0360793357100381e-02  7.7296291809353440e-03  2.9843756079026402e-03  -5.3883271025218660e-03  -1.9988865004899558e-02  -4.7424505260267320e-02  -9.6919101714121630e-02  -2.4401870403005840e-01  -4.6466833465539609e-01  -2.0630542909913219e+00  -2.0630542910071763e+00  -4.6466833465601481e-01  -2.4401870403068085e-01  -9.6919101714274147e-02  -4.7424505260338715e-02  -1.9988865004910299e-02  -5.3883271024990484e-03  2.9843756079505797e-03  7.7296291810047754e-03  1.0360793357186220e-02  1.1790840045372843e-02  1.2603211729737163e-02  1.3128306932846088e-02  1.3477241958046985e-02  1.3579052644561810e-02  1.3237103132370854e-02  1.2199022453050660e-02  1.0226283763764608e-02  7.1549604782410762e-03  2.9520703277802454e-03  -2.2109003282009061e-03  -7.8270018300965020e-03  -1.2813608060169030e-02  -1.5165518382575405e-02  -1.1842989099164121e-02  -3.3159786871712790e-04  -1.9186941830119701e-04  -8.5918222978912124e-03  -1.1707523615403921e-02  -1.1146753719534807e-02  -8.9538421305235746e-03  -6.5300645395610802e-03  -4.6668587648618382e-03  -3.7463361709673009e-03  -3.8744305821375368e-03  -4.9454193750276690e-03  -6.6783953963222252e-03  -8.6611082244644946e-03  -1.0421399847431758e-02  -1.1525248530555830e-02  -1.1675689060467351e-02  -1.0771895957739881e-02  -8.8913395306199836e-03  -6.1809554256939533e-03  -2.6716044182065663e-03  2.0284607240875440e-03  8.9756457401960164e-03  2.2168906678758638e-02  4.3073828643682290e-02  1.3981232054609652e-01  9.7771528770446717e-02  4.7740484958064107e+00  4.7740484958251281e+00  9.7771528770683472e-02  1.3981232054649662e-01  4.3073828643772828e-02  2.2168906678832458e-02  8.9756457402600087e-03  2.0284607241614727e-03  -2.6716044181171899e-03  -6.1809554255858453e-03  -8.8913395304928318e-03  -1.0771895957600025e-02  -1.1675689060320515e-02  -1.1525248530411005e-02  -1.0421399847294862e-02  -8.6611082243452583e-03  -6.6783953962209078e-03  -4.9454193749471145e-03  -3.8744305820779912e-03  -3.7463361709271200e-03  -4.6668587648379762e-03  -6.5300645395525783e-03  -8.9538421305287545e-03  -1.1146753719551808e-02  -1.1707523615425677e-02  -8.5918222979092136e-03  -1.9186941830129622e-04  -4.0130414377327533e-05  -4.5877421295462588e-03  -7.0837007233522063e-03  -8.1316872750375867e-03  -8.6587424668401834e-03  -9.4154592416608781e-03  -1.0908001765695102e-02  -1.3421620887838468e-02  -1.7024957072957040e-02  -2.1550132990606242e-02  -2.6575993579245765e-02  -3.1449817562256510e-02  -3.5376884972904615e-02  -3.7577094726402901e-02  -3.7460150264322305e-02  -3.4728116711350066e-02  -2.9317150820048210e-02  -2.1136351097600873e-02  -9.5969227726146310e-03  7.0759657530627103e-03  3.3259137596652055e-02  7.7453998267192514e-02  1.6612940695772241e-01  3.1792358981176266e-01  8.8550393906097558e-01  1.3722211727897038e+00  1.3722211727909346e+00  8.8550393906298985e-01  3.1792358981235030e-01  1.6612940695805364e-01  7.7453998267371038e-02  3.3259137596782978e-02  7.0759657531842572e-03  -9.5969227724825631e-03  -2.1136351097448266e-02  -2.9317150819871320e-02  -3.4728116711156297e-02  -3.7460150264121361e-02  -3.7577094726204442e-02  -3.5376884972721886e-02  -3.1449817562096631e-02  -2.65759