<?xml version="1.0"?>
<VTKFile type="UnstructuredGrid"  version="0.1"  >
<UnstructuredGrid>
<Piece  NumberOfPoints="5305" NumberOfCells="10404">
<Points>
<DataArray  type="Float64"  NumberOfComponents="3"  format="ascii">-5 -5 0  -4.803921568627451 -5 0  -4.607843137254902 -5 0  -4.411764705882353 -5 0  -4.215686274509804 -5 0  -4.019607843137255 -5 0  -3.823529411764706 -5 0  -3.627450980392157 -5 0  -3.431372549019608 -5 0  -3.235294117647059 -5 0  -3.03921568627451 -5 0  -2.843137254901961 -5 0  -2.647058823529412 -5 0  -2.450980392156863 -5 0  -2.254901960784314 -5 0  -2.058823529411764 -5 0  -1.862745098039216 -5 0  -1.666666666666667 -5 0  -1.470588235294118 -5 0  -1.274509803921569 -5 0  -1.07843137254902 -5 0  -0.882352941176471 -5 0  -0.6862745098039218 -5 0  -0.4901960784313726 -5 0  -0.2941176470588234 -5 0  -0.09803921568627416 -5 0  0.09803921568627416 -5 0  0.2941176470588234 -5 0  0.4901960784313726 -5 0  0.6862745098039218 -5 0  0.882352941176471 -5 0  1.078431372549019 -5 0  1.274509803921569 -5 0  1.470588235294118 -5 0  1.666666666666667 -5 0  1.862745098039215 -5 0  2.058823529411764 -5 0  2.254901960784314 -5 0  2.450980392156863 -5 0  2.647058823529412 -5 0  2.84313725490196 -5 0  3.03921568627451 -5 0  3.235294117647058 -5 0  3.431372549019608 -5 0  3.627450980392156 -5 0  3.823529411764707 -5 0  4.019607843137255 -5 0  4.215686274509803 -5 0  4.411764705882353 -5 0  4.607843137254902 -5 0  4.803921568627452 -5 0  5 -5 0  -5 -4.803921568627451 0  -4.803921568627451 -4.803921568627451 0  -4.607843137254902 -4.803921568627451 0  -4.411764705882353 -4.803921568627451 0  -4.215686274509804 -4.803921568627451 0  -4.019607843137255 -4.803921568627451 0  -3.823529411764706 -4.803921568627451 0  -3.627450980392157 -4.803921568627451 0  -3.431372549019608 -4.803921568627451 0  -3.235294117647059 -4.803921568627451 0  -3.03921568627451 -4.803921568627451 0  -2.843137254901961 -4.803921568627451 0  -2.647058823529412 -4.803921568627451 0  -2.450980392156863 -4.803921568627451 0  -2.254901960784314 -4.803921568627451 0  -2.058823529411764 -4.803921568627451 0  -1.862745098039216 -4.803921568627451 0  -1.666666666666667 -4.803921568627451 0  -1.470588235294118 -4.803921568627451 0  -1.274509803921569 -4.803921568627451 0  -1.07843137254902 -4.803921568627451 0  -0.882352941176471 -4.803921568627451 0  -0.6862745098039218 -4.803921568627451 0  -0.4901960784313726 -4.803921568627451 0  -0.2941176470588234 -4.803921568627451 0  -0.09803921568627416 -4.803921568627451 0  0.09803921568627416 -4.803921568627451 0  0.2941176470588234 -4.803921568627451 0  0.4901960784313726 -4.803921568627451 0  0.6862745098039218 -4.803921568627451 0  0.882352941176471 -4.803921568627451 0  1.078431372549019 -4.803921568627451 0  1.274509803921569 -4.803921568627451 0  1.470588235294118 -4.803921568627451 0  1.666666666666667 -4.803921568627451 0  1.862745098039215 -4.803921568627451 0  2.058823529411764 -4.803921568627451 0  2.254901960784314 -4.803921568627451 0  2.450980392156863 -4.803921568627451 0  2.647058823529412 -4.803921568627451 0  2.84313725490196 -4.803921568627451 0  3.03921568627451 -4.803921568627451 0  3.235294117647058 -4.803921568627451 0  3.431372549019608 -4.803921568627451 0  3.627450980392156 -4.803921568627451 0  3.823529411764707 -4.803921568627451 0  4.019607843137255 -4.803921568627451 0  4.215686274509803 -4.803921568627451 0  4.411764705882353 -4.803921568627451 0  4.607843137254902 -4.803921568627451 0  4.803921568627452 -4.803921568627451 0  5 -4.803921568627451 0  -5 -4.607843137254902 0  -4.803921568627451 -4.607843137254902 0  -4.607843137254902 -4.607843137254902 0  -4.411764705882353 -4.607843137254902 0  -4.215686274509804 -4.607843137254902 0  -4.019607843137255 -4.607843137254902 0  -3.823529411764706 -4.607843137254902 0  -3.627450980392157 -4.607843137254902 0  -3.431372549019608 -4.607843137254902 0  -3.235294117647059 -4.607843137254902 0  -3.03921568627451 -4.607843137254902 0  -2.843137254901961 -4.607843137254902 0  -2.647058823529412 -4.607843137254902 0  -2.450980392156863 -4.607843137254902 0  -2.254901960784314 -4.607843137254902 0  -2.058823529411764 -4.607843137254902 0  -1.862745098039216 -4.607843137254902 0  -1.666666666666667 -4.607843137254902 0  -1.470588235294118 -4.607843137254902 0  -1.274509803921569 -4.607843137254902 0  -1.07843137254902 -4.607843137254902 0  -0.882352941176471 -4.607843137254902 0  -0.6862745098039218 -4.607843137254902 0  -0.4901960784313726 -4.607843137254902 0  -0.2941176470588234 -4.607843137254902 0  -0.09803921568627416 -4.607843137254902 0  0.09803921568627416 -4.607843137254902 0  0.2941176470588234 -4.607843137254902 0  0.4901960784313726 -4.607843137254902 0  0.6862745098039218 -4.607843137254902 0  0.882352941176471 -4.607843137254902 0  1.078431372549019 -4.607843137254902 0  1.274509803921569 -4.607843137254902 0  1.470588235294118 -4.607843137254902 0  1.666666666666667 -4.607843137254902 0  1.862745098039215 -4.607843137254902 0  2.058823529411764 -4.607843137254902 0  2.254901960784314 -4.607843137254902 0  2.450980392156863 -4.607843137254902 0  2.647058823529412 -4.607843137254902 0  2.84313725490196 -4.607843137254902 0  3.03921568627451 -4.607843137254902 0  3.235294117647058 -4.607843137254902 0  3.431372549019608 -4.607843137254902 0  3.627450980392156 -4.607843137254902 0  3.823529411764707 -4.607843137254902 0  4.019607843137255 -4.607843137254902 0  4.215686274509803 -4.607843137254902 0  4.411764705882353 -4.607843137254902 0  4.607843137254902 -4.607843137254902 0  4.803921568627452 -4.607843137254902 0  5 -4.607843137254902 0  -5 -4.411764705882353 0  -4.803921568627451 -4.411764705882353 0  -4.607843137254902 -4.411764705882353 0  -4.411764705882353 -4.411764705882353 0  -4.215686274509804 -4.411764705882353 0  -4.019607843137255 -4.411764705882353 0  -3.823529411764706 -4.411764705882353 0  -3.627450980392157 -4.411764705882353 0  -3.431372549019608 -4.411764705882353 0  -3.235294117647059 -4.411764705882353 0  -3.03921568627451 -4.411764705882353 0  -2.843137254901961 -4.411764705882353 0  -2.647058823529412 -4.411764705882353 0  -2.450980392156863 -4.411764705882353 0  -2.254901960784314 -4.411764705882353 0  -2.058823529411764 -4.411764705882353 0  -1.862745098039216 -4.411764705882353 0  -1.666666666666667 -4.411764705882353 0  -1.470588235294118 -4.411764705882353 0  -1.274509803921569 -4.411764705882353 0  -1.07843137254902 -4.411764705882353 0  -0.882352941176471 -4.411764705882353 0  -0.6862745098039218 -4.411764705882353 0  -0.4901960784313726 -4.411764705882353 0  -0.2941176470588234 -4.411764705882353 0  -0.09803921568627416 -4.411764705882353 0  0.09803921568627416 -4.411764705882353 0  0.2941176470588234 -4.411764705882353 0  0.4901960784313726 -4.411764705882353 0  0.6862745098039218 -4.411764705882353 0  0.882352941176471 -4.411764705882353 0  1.078431372549019 -4.411764705882353 0  1.274509803921569 -4.411764705882353 0  1.470588235294118 -4.411764705882353 0  1.666666666666667 -4.411764705882353 0  1.862745098039215 -4.411764705882353 0  2.058823529411764 -4.411764705882353 0  2.254901960784314 -4.411764705882353 0  2.450980392156863 -4.411764705882353 0  2.647058823529412 -4.411764705882353 0  2.84313725490196 -4.411764705882353 0  3.03921568627451 -4.411764705882353 0  3.235294117647058 -4.411764705882353 0  3.431372549019608 -4.411764705882353 0  3.627450980392156 -4.411764705882353 0  3.823529411764707 -4.411764705882353 0  4.019607843137255 -4.411764705882353 0  4.215686274509803 -4.411764705882353 0  4.411764705882353 -4.411764705882353 0  4.607843137254902 -4.411764705882353 0  4.803921568627452 -4.411764705882353 0  5 -4.411764705882353 0  -5 -4.215686274509804 0  -4.803921568627451 -4.215686274509804 0  -4.607843137254902 -4.215686274509804 0  -4.411764705882353 -4.215686274509804 0  -4.215686274509804 -4.215686274509804 0  -4.019607843137255 -4.215686274509804 0  -3.823529411764706 -4.215686274509804 0  -3.627450980392157 -4.215686274509804 0  -3.431372549019608 -4.215686274509804 0  -3.235294117647059 -4.215686274509804 0  -3.03921568627451 -4.215686274509804 0  -2.843137254901961 -4.215686274509804 0  -2.647058823529412 -4.215686274509804 0  -2.450980392156863 -4.215686274509804 0  -2.254901960784314 -4.215686274509804 0  -2.058823529411764 -4.215686274509804 0  -1.862745098039216 -4.215686274509804 0  -1.666666666666667 -4.215686274509804 0  -1.470588235294118 -4.215686274509804 0  -1.274509803921569 -4.215686274509804 0  -1.07843137254902 -4.215686274509804 0  -0.882352941176471 -4.215686274509804 0  -0.6862745098039218 -4.215686274509804 0  -0.4901960784313726 -4.215686274509804 0  -0.2941176470588234 -4.215686274509804 0  -0.09803921568627416 -4.215686274509804 0  0.09803921568627416 -4.215686274509804 0  0.2941176470588234 -4.215686274509804 0  0.4901960784313726 -4.215686274509804 0  0.6862745098039218 -4.215686274509804 0  0.882352941176471 -4.215686274509804 0  1.078431372549019 -4.215686274509804 0  1.274509803921569 -4.215686274509804 0  1.470588235294118 -4.215686274509804 0  1.666666666666667 -4.215686274509804 0  1.862745098039215 -4.215686274509804 0  2.058823529411764 -4.215686274509804 0  2.254901960784314 -4.215686274509804 0  2.450980392156863 -4.215686274509804 0  2.647058823529412 -4.215686274509804 0  2.84313725490196 -4.215686274509804 0  3.03921568627451 -4.215686274509804 0  3.235294117647058 -4.215686274509804 0  3.431372549019608 -4.215686274509804 0  3.627450980392156 -4.215686274509804 0  3.823529411764707 -4.215686274509804 0  4.019607843137255 -4.215686274509804 0  4.215686274509803 -4.215686274509804 0  4.411764705882353 -4.215686274509804 0  4.607843137254902 -4.215686274509804 0  4.803921568627452 -4.215686274509804 0  5 -4.215686274509804 0  -5 -4.019607843137255 0  -4.803921568627451 -4.019607843137255 0  -4.607843137254902 -4.019607843137255 0  -4.411764705882353 -4.019607843137255 0  -4.215686274509804 -4.019607843137255 0  -4.019607843137255 -4.
[...]
<PointData  Scalars="f_1200139"> 
<DataArray  type="Float64"  Name="f_1200139"  format="ascii">8.6163668045280173e-01  8.5863415441778113e-01  8.5882416131706962e-01  8.5883207732623967e-01  8.5889252765650848e-01  8.5896064199695499e-01  8.5903312883921878e-01  8.5910537639427331e-01  8.5917507135630977e-01  8.5924044089543472e-01  8.5929992258921606e-01  8.5935195647405715e-01  8.5939500163185967e-01  8.5942769685973275e-01  8.5944911122202772e-01  8.5945899220163346e-01  8.5945791918029724e-01  8.5944730003050085e-01  8.5942921230362679e-01  8.5940615028031109e-01  8.5938076143843878e-01  8.5935561698009499e-01  8.5933299737276436e-01  8.5931469515763315e-01  8.5930192509401293e-01  8.5929538610224099e-01  8.5929538610224965e-01  8.5930192509402747e-01  8.5931469515764713e-01  8.5933299737277491e-01  8.5935561698010299e-01  8.5938076143844144e-01  8.5940615028031819e-01  8.5942921230363734e-01  8.5944730003050696e-01  8.5945791918029879e-01  8.5945899220163546e-01  8.5944911122203071e-01  8.5942769685973475e-01  8.5939500163186644e-01  8.5935195647406415e-01  8.5929992258921195e-01  8.5924044089543439e-01  8.5917507135631077e-01  8.5910537639427798e-01  8.5903312883921934e-01  8.5896064199695843e-01  8.5889252765651281e-01  8.5883207732624589e-01  8.5882416131707684e-01  8.5863415441779278e-01  8.6163668045281971e-01  8.5863415441778068e-01  8.2139899977012454e-01  7.9893177913460700e-01  7.8456258311201965e-01  7.7529170163926620e-01  7.6952883939935679e-01  7.6624753849341609e-01  7.6474267249543426e-01  7.6449605548812150e-01  7.6510609462766233e-01  7.6624675323641156e-01  7.6764525933669348e-01  7.6907302744421058e-01  7.7034608516364689e-01  7.7133086109015336e-01  7.7195041334929648e-01  7.7218629584768339e-01  7.7207298570306959e-01  7.7168472200300120e-01  7.7111749026376930e-01  7.7047045410343651e-01  7.6983092726929148e-01  7.6926545766535614e-01  7.6881759566409191e-01  7.6851112225105900e-01  7.6835630769685470e-01  7.6835630769685437e-01  7.6851112225106133e-01  7.6881759566409080e-01  7.6926545766535159e-01  7.6983092726928415e-01  7.7047045410344306e-01  7.7111749026376952e-01  7.7168472200299765e-01  7.7207298570306926e-01  7.7218629584768406e-01  7.7195041334929948e-01  7.7133086109015359e-01  7.7034608516364667e-01  7.6907302744421080e-01  7.6764525933669325e-01  7.6624675323641267e-01  7.6510609462766177e-01  7.6449605548812205e-01  7.6474267249543437e-01  7.6624753849341498e-01  7.6952883939935712e-01  7.7529170163926719e-01  7.8456258311201954e-01  7.9893177913460856e-01  8.2139899977012509e-01  8.5863415441777924e-01  8.5882416131706929e-01  7.9893177913460689e-01  7.5789325000845942e-01  7.2952142126515462e-01  7.1008902603581814e-01  6.9713454426003274e-01  6.8894806320698121e-01  6.8427860577405164e-01  6.8217470010029013e-01  6.8188505796501320e-01  6.8279697240441606e-01  6.8440040110344358e-01  6.8627173801214392e-01  6.8807212506768833e-01  6.8955403289533590e-01  6.9056846516022330e-01  6.9106534914871021e-01  6.9108234769114951e-01  6.9072185812820652e-01  6.9012048132753634e-01  6.8941784607434797e-01  6.8873159626419111e-01  6.8814314254176934e-01  6.8769554067494454e-01  6.8740158231106196e-01  6.8725765517662196e-01  6.8725765517662174e-01  6.8740158231105786e-01  6.8769554067494532e-01  6.8814314254177067e-01  6.8873159626418956e-01  6.8941784607434642e-01  6.9012048132753545e-01  6.9072185812820541e-01  6.9108234769114907e-01  6.9106534914870899e-01  6.9056846516022452e-01  6.8955403289533335e-01  6.8807212506768856e-01  6.8627173801214336e-01  6.8440040110344447e-01  6.8279697240441628e-01  6.8188505796501642e-01  6.8217470010028958e-01  6.8427860577405231e-01  6.8894806320698165e-01  6.9713454426003330e-01  7.1008902603581858e-01  7.2952142126515496e-01  7.5789325000846131e-01  7.9893177913460911e-01  8.5882416131707051e-01  8.5883207732624178e-01  7.8456258311201921e-01  7.2952142126515362e-01  6.8890326999258222e-01  6.5940341703160488e-01  6.3850784998429078e-01  6.2425111778442888e-01  6.1507624672699168e-01  6.0973321728605667e-01  6.0720358195663715e-01  6.0664542285810930e-01  6.0735743393893948e-01  6.0876055390488881e-01  6.1039380445818014e-01  6.1191833218970559e-01  6.1312158786647641e-01  6.1391358755974756e-01  6.1431004300120473e-01  6.1440209530585399e-01  6.1431748827416499e-01  6.1418126090964187e-01  6.1408449503181739e-01  6.1406764169720807e-01  6.1412123247995976e-01  6.1420217785414888e-01  6.1425939484113368e-01  6.1425939484113412e-01  6.1420217785415132e-01  6.1412123247996897e-01  6.1406764169720829e-01  6.1408449503181972e-01  6.1418126090964176e-01  6.1431748827416577e-01  6.1440209530585554e-01  6.1431004300120429e-01  6.1391358755974856e-01  6.1312158786647797e-01  6.1191833218970382e-01  6.1039380445818170e-01  6.0876055390488937e-01  6.0735743393893937e-01  6.0664542285811063e-01  6.0720358195663804e-01  6.0973321728605701e-01  6.1507624672699146e-01  6.2425111778442954e-01  6.3850784998429266e-01  6.5940341703160643e-01  6.8890326999258411e-01  7.2952142126515496e-01  7.8456258311202243e-01  8.5883207732624400e-01  8.5889252765650748e-01  7.7529170163926664e-01  7.1008902603581714e-01  6.5940341703160454e-01  6.2070298690255199e-01  5.9186014730033787e-01  5.7100651032322547e-01  5.5651424350351586e-01  5.4698678918641830e-01  5.4123827475992958e-01  5.3826769998977830e-01  5.3723633300468232e-01  5.3745352299490712e-01  5.3837153409904526e-01  5.3958571785610721e-01  5.4083342256919764e-01  5.4198452348319226e-01  5.4301878285392358e-01  5.4398970373156164e-01  5.4497948111266348e-01  5.4605336961881978e-01  5.4722334568101350e-01  5.4843017937001970e-01  5.4954974754256158e-01  5.5042340315394622e-01  5.5090431330357525e-01  5.5090431330357637e-01  5.5042340315395077e-01  5.4954974754256469e-01  5.4843017937002336e-01  5.4722334568101494e-01  5.4605336961882345e-01  5.4497948111267003e-01  5.4398970373156674e-01  5.4301878285392446e-01  5.4198452348319492e-01  5.4083342256919831e-01  5.3958571785610709e-01  5.3837153409904537e-01  5.3745352299490667e-01  5.3723633300468410e-01  5.3826769998977708e-01  5.4123827475992914e-01  5.4698678918641808e-01  5.5651424350351519e-01  5.7100651032322758e-01  5.9186014730033898e-01  6.2070298690255399e-01  6.5940341703160688e-01  7.1008902603581969e-01  7.7529170163926742e-01  8.5889252765650959e-01  8.5896064199695543e-01  7.6952883939935668e-01  6.9713454426003152e-01  6.3850784998428944e-01  5.9186014730033720e-01  5.5562096378209580e-01  5.2822741086806735e-01  5.0815943143850639e-01  4.9400694078866880e-01  4.8451181211560729e-01  4.7858295284662461e-01  4.7529644244886521e-01  4.7389128101173272e-01  4.7376588096608485e-01  4.7447503794135426e-01  4.7572334111411529e-01  4.7734965855946693e-01  4.7929863868043665e-01  4.8157854880582140e-01  4.8420912340770705e-01  4.8716736027815760e-01  4.9034270322762519e-01  4.9351515529790035e-01  4.9636862441344326e-01  4.9854448198260815e-01  4.9972584933707132e-01  4.9972584933707176e-01  4.9854448198261486e-01  4.9636862441345103e-01  4.9351515529790690e-01  4.9034270322763479e-01  4.8716736027816376e-01  4.8420912340771566e-01  4.8157854880582623e-01  4.7929863868043843e-01  4.7734965855946782e-01  4.7572334111411724e-01  4.7447503794135454e-01  4.7376588096608580e-01  4.7389128101173328e-01  4.7529644244886510e-01  4.7858295284662372e-01  4.8451181211560745e-01  4.9400694078866964e-01  5.0815943143850839e-01  5.2822741086806935e-01  5.5562096378209835e-01  5.9186014730033920e-01  6.3850784998429333e-01  6.9713454426003529e-01  7.6952883939936068e-01  8.5896064199695632e-01  8.5903312883921945e-01  7.6624753849341298e-01  6.8894806320697999e-01  6.2425111778442610e-01  5.7100651032322502e-01  5.2822741086806624e-01  4.9475463735687697e-01  4.6928747752442779e-01  4.5049961791099075e-01  4.3713678914179394e-01  4.2807525269210112e-01  4.2234948896756952e-01  4.1916216077516033e-01  4.1788538324742680e-01  4.1805664101896689e-01  4.1936819774752909e-01  4.2164649254130809e-01  4.2481795820275198e-01  4.2885957681729531e-01  4.3373590892917607e-01  4.3932921357871840e-01  4.4537590624049528e-01  4.5143035631191852e-01  4.5688177699751387e-01  4.6104313467156788e-01  4.6330470820509823e-01  4.6330470820509878e-01  4.6104313467157421e-01  4.5688177699752663e-01  4.5143035631193235e-01  4.4537590624050971e-01  4.3932921357872984e-01  4.3373590892918540e-01  4.2885957681730352e-01  4.2481795820275803e-01  4.2164649254131181e-01  4.1936819774753098e-01  4.1805664101896778e-01  4.1788538324742680e-01  4.1916216077515855e-01  4.2234948896756769e-01  4.2807525269210017e-01  4.3713678914179221e-01  4.5049961791099075e-01  4.6928747752442818e-01  4.9475463735687869e-01  5.2822741086806968e-01  5.7100651032322691e-01  6.2425111778443121e-01  6.8894806320698387e-01  7.6624753849341820e-01  8.5903312883922012e-01  8.5910537639427598e-01  7.6474267249543182e-01  6.8427860577404831e-01  6.1507624672698813e-01  5.5651424350351175e-01  5.0815943143850484e-01  4.6928747752442618e-01  4.3887536883247880e-01  4.1574155679751479e-01  3.9868815196483220e-01  3.8660033307052916e-01  3.7850304105585858e-01  3.7358794377809484e-01  3.7122253058868759e-01  3.7094796358252485e-01  3.7246723064185550e-01  3.7562165528939195e-01  3.8035208323706537e-01  3.8664095426544781e-01  3.9443321323085928e-01  4.0353901045214730e-01  4.1353181769545294e-01  4.2367363891789306e-01  4.3291870858293835e-01  4.4004908354451577e-01  4.4395126847231414e-01  4.4395126847231958e-01  4.4004908354452837e-01  4.3291870858295672e-01  4.2367363891791548e-01  4.1353181769547420e-01  4.0353901045216578e-01  3.9443321323087693e-01  3.8664095426546041e-01  3.8035208323707387e-01  3.7562165528939545e-01  3.7246723064185805e-01  3.7094796358252363e-01  3.7122253058868543e-01  3.7358794377809168e-01  3.7850304105585514e-01  3.8660033307052633e-01  3.9868815196483010e-01  4.1574155679751440e-01  4.3887536883247891e-01  4.6928747752442784e-01  5.0815943143850839e-01  5.5651424350351586e-01  6.1507624672699446e-01  6.8427860577405297e-01  7.6474267249543837e-01  8.5910537639427886e-01  8.5917507135630877e-01  7.6449605548811994e-01  6.8217470010028403e-01  6.0973321728605157e-01  5.4698678918641275e-01  4.9400694078866542e-01  4.5049961791098786e-01  4.1574155679751312e-01  3.8872749035774828e-01  3.6834663475228469e-01  3.5351889807383269e-01  3.4328023598331808e-01  3.3682826449011483e-01  3.3354189441821530e-01  3.3298441725141176e-01  3.3489398174169699e-01  3.3916071062265057e-01  3.4578604950040115e-01  3.5481708727138905e-01  3.6624717102444027e-01  3.7987702814004587e-01  3.9514452746437601e-01  4.1096473883221052e-01  4.2567440212683622e-01  4.3721093299472275e-01  4.4359630172578429e-01  4.4359630172579328e-01  4.3721093299474445e-01  4.2567440212686830e-01  4.1096473883224582e-01  3.9514452746440637e-01  3.7987702814007385e-01  3.6624717102446380e-01  3.5481708727140526e-01  3.4578604950041270e-01  3.3916071062265490e-01  3.3489398174169610e-01  3.3298441725140920e-01  3.3354189441820953e-01  3.3682826449010961e-01  3.4328023598331203e-01  3.5351889807382764e-01  3.6834663475228097e-01  3.8872749035774645e-01  4.1574155679751396e-01  4.5049961791099086e-01  4.9400694078867002e-01  5.4698678918642041e-01  6.0973321728605778e-01  6.8217470010029180e-01  7.6449605548812427e-01  8.5917507135631221e-01  8.5924044089543195e-01  7.6510609462765866e-01  6.8188505796500820e-01  6.0720358195663060e-01  5.4123827475992203e-01  4.8451181211560174e-01  4.3713678914179060e-01  3.9868815196483026e-01  3.6834663475228446e-01  3.4510159362112552e-01  3.2791988343458078e-01  3.1585870229233337e-01  3.0813071612866622e-01  3.0413646757915658e-01  3.0347592116216354e-01  3.0594524854895488e-01  3.1151919872487910e-01  3.2031370748772192e-01  3.3251707638720701e-01  3.4827111654237386e-01  3.6747988200784293e-01  3.8953493975732384e-01  4.1299646678998830e-01  4.3538023512247309e-01  4.5332953681100913e-01  4.6341653376692615e-01  4.6341653376694059e-01  4.5332953681104304e-01  4.3538023512252000e-01  4.1299646679003954e-01  3.8953493975737052e-01  3.6747988200788467e-01  3.4827111654240656e-01  3.3251707638722855e-01  3.2031370748773397e-01  3.1151919872488532e-01  3.0594524854895377e-01  3.0347592116215788e-01  3.0413646757914897e-01  3.0813071612865545e-01  3.1585870229232366e-01  3.2791988343457362e-01  3.4510159362111903e-01  3.6834663475228113e-01  3.9868815196482943e-01  4.3713678914179305e-01  4.8451181211560757e-01  5.4123827475993047e-01  6.0720358195664126e-01  6.8188505796501730e-01  7.6510609462766777e-01  8.5924044089543294e-01  8.5929992258921417e-01  7.6624675323640390e-01  6.8279697240440840e-01  6.0664542285809941e-01  5.3826769998976842e-01  4.7858295284661723e-01  4.2807525269209556e-01  3.8660033307052749e-01  3.5351889807383319e-01  3.2791988343458223e-01  3.0881817692476976e-01  2.9529334728950407e-01  2.8657451182239674e-01  2.8208718062301286e-01  2.8147601796860805e-01  2.8461169025811228e-01  2.9158346302880334e-01  3.0267183190359986e-01  3.1828537593872269e-01  3.3883145017938232e-01  3.6447332755757705e-01  3.9472272397091035e-01  4.2787207882393408e-01  4.6046080119356930e-01  4.8729369741448608e-01  5.0265345739936962e-01  5.0265345739939038e-01  4.8729369741453354e-01  4.6046080119364236e-01  4.2787207882400902e-01  3.9472272397097641e-01  3.6447332755763234e-01  3.3883145017942473e-01  3.1828537593874989e-01  3.0267183190361374e-01  2.9158346302880661e-01  2.8461169025810662e-01  2.8147601796859717e-01  2.8208718062299765e-01  2.8657451182238153e-01  2.9529334728948842e-01  3.0881817692475660e-01  3.2791988343457307e-01  3.5351889807382669e-01  3.8660033307052699e-01  4.2807525269210106e-01  4.7858295284662455e-01  5.3826769998977886e-01  6.0664542285811240e-01  6.8279697240442050e-01  7.6624675323641456e-01  8.5929992258921728e-01  8.5935195647406215e-01  7.6764525933668581e-01  6.8440040110343092e-01  6.0735743393892716e-01  5.3723633300467100e-01  4.7529644244885622e-01  4.2234948896756408e-01  3.7850304105585825e-01  3.4328023598332102e-01  3.1585870229233803e-01  2.9529334728950812e-01  2.8067892801700911e-01  2.7125434600298659e-01  2.6646495889992505e-01  2.6599850453639634e-01  2.6980462676464328e-01  2.7810129860970878e-01  2.9136318828506147e-01  3.1027396119212741e-01  3.3560171006316863e-01  3.6792137950170783e-01  4.0707373332606717e-01  4.5128260314551533e-01  4.9611292733203122e-01  5.3407644828174128e-01  5.5624643004710972e-01  5.5624643004713603e-01  5.3407644828181955e-01  4.9611292733212814e-01  4.5128260314561597e-01  4.0707373332615659e-01  3.6792137950177795e-01  3.3560171006321693e-01  3.1027396119215811e-01  2.9136318828507385e-01  2.7810129860970778e-01  2.6980462676463174e-01  2.6599850453637774e-01  2.6646495889990274e-01  2.7125434600296244e-01  2.8067892801698613e-01  2.9529334728948775e-01  3.1585870229232288e-01  3.4328023598331181e-01  3.7850304105585442e-01  4.2234948896756869e-01  4.7529644244886526e-01  5.3723633300468521e-01  6.0735743393894237e-01  6.8440040110344635e-01  7.6764525933669847e-01  8.5935195647406448e-01  8.5939500163186078e-01  7.6907302744420181e-01  6.8627173801213037e-01  6.0876055390487382e-01  5.3745352299489357e-01  4.7389128101172323e-01  4.1916216077515694e-01  3.7358794377809695e-01  3.3682826449012249e-01  3.0813071612867710e-01  2.8657451182240889e-01  2.7125434600299492e-01  2.6140339082263148e-01  2.5647167883139155e-01  2.5617625773003461e-01  2.6053411981826974e-01  2.6988257673626270e-01  2.8488382956704905e-01  3.0649622766711238e-01  3.3586565670905538e-01  3.7403712822359925e-01  4.2131348258080659e-01  4.7606957852821280e-01  5.3311343325238292e-01  5.8264891253348206e-01  6.1210508479174297e-01  6.1210508479177983e-01  5.8264891253357931e-01  5.3311343325251093e-01  4.7606957852834347e-01  4.2131348258091428e-01  3.7403712822368262e-01  3.3586565670911078e-01  3.0649622766714130e-01  2.8488382956705693e-01  2.6988257673625299e-01  2.6053411981824787e-01  2.5617625773000341e-01  2.5647167883135674e-01  2.6140339082259517e-01  2.7125434600296056e-01  2.8657451182237981e-01  3.0813071612865406e-01  3.3682826449010767e-01  3.7358794377809135e-01  4.1916216077516039e-01  4.7389128101173289e-01  5.3745352299490845e-01  6.0876055390489170e-01  6.8627173801214825e-01  7.6907302744421635e-01  8.5939500163186533e-01  8.5942769685973208e-01  7.7034608516363545e-01  6.8807212506767079e-01  6.1039380445816327e-01  5.3837153409902783e-01  4.7376588096607597e-01  4.1788538324742480e-01  3.7122253058869409e-01  3.3354189441823007e-01  3.0413646757917806e-01  2.8208718062303617e-01  2.6646495889994887e-01  2.5647167883140748e-01  2.5153548080663440e-01  2.5137604115946055e-01  2.5604988290130892e-01  2.6598024635669865e-01  2.8196970617680800e-01  3.0518047023787193e-01  3.3703576935818969e-01  3.7893076712106744e-01  4.3153916761511968e-01  4.9343319750492998e-01  5.5900454711679071e-01  6.1685200514363825e-01  6.5167342826552488e-01  6.5167342826556973e-01  6.1685200514375338e-01  5.5900454711693959e-01  4.9343319750507642e-01  4.3153916761524225e-01  3.7893076712115670e-01  3.3703576935824492e-01  3.0518047023789635e-01  2.8196970617680644e-01  2.6598024635667633e-01  2.5604988290127034e-01  2.5137604115941303e-01  2.5153548080658183e-01  2.5647167883135408e-01  2.6646495889989991e-01  2.8208718062299415e-01  3.0413646757914481e-01  3.3354189441820875e-01  3.7122253058868426e-01  4.1788538324742708e-01  4.7376588096608574e-01  5.3837153409904737e-01  6.1039380445818381e-01  6.8807212506769178e-01  7.7034608516365022e-01  8.5942769685973819e-01  8.5944911122203027e-01  7.7133086109014082e-01  6.8955403289531669e-01  6.1191833218968295e-01  5.3958571785608944e-01  4.7447503794134455e-01  4.1805664101896889e-01  3.7094796358253734e-01  3.3298441725143690e-01  3.0347592116219924e-01  2.8147601796865140e-01  2.6599850453644114e-01  2.5617625773007402e-01  2.5137604115948620e-01  2.5128152566008871e-01  2.5595004948750572e-01  2.6584409825875072e-01  2.8183539379089273e-01  3.0516995365096222e-01  3.3735281218924129e-01  3.7984483740625175e-01  4.3335671837882639e-01  4.9644827871745550e-01  5.6340495825398196e-01  6.2256606246159574e-01  6.5820948346616637e-01  6.5820948346620900e-01  6.2256606246170954e-01  5.6340495825413106e-01  4.9644827871760422e-01  4.3335671837894740e-01  3.7984483740633629e-01  3.3735281218928831e-01  3.0516995365097399e-01  2.8183539379087436e-01  2.6584409825870803e-01  2.5595004948744460e-01  2.5128152566001583e-01  2.5137604115940904e-01  2.5617625772999852e-01  2.6599850453637153e-01  2.8147601796859145e-01  3.0347592116215366e-01  3.3298441725140571e-01  3.7094796358252069e-01  4.1805664101896656e-01  4.7447503794135393e-01  5.3958571785610865e-01  6.1191833218970726e-01  6.8955403289533757e-01  7.7133086109015658e-01  8.5944911122203305e-01  8.5945899220163358e-01  7.7195041334928449e-01  6.9056846516020454e-01  6.1312158786645443e-01  5.4083342256918066e-01  4.7572334111410891e-01  4.1936819774753548e-01  3.7246723064187881e-01  3.3489398174173540e-01  3.0594524854901073e-01  2.8461169025818023e-01  2.6980462676471784e-01  2.6053411981834490e-01  2.5604988290137209e-01  2.5595004948754485e-01  2.6025244218702964e-01  2.6941979569430891e-01  2.8433405049140875e-01  3.0621388350688633e-01  3.3644722229778806e-01  3.7625294742663778e-01  4.2599909677096703e-01  4.8396664371188597e-01  5.4462170029363810e-01  5.9747322694608662e-01  6.2896953748772588e-01  6.2896953748776374e-01  5.9747322694618921e-01  5.4462170029377077e-01  4.8396664371201681e-01  4.2599909677107189e-01  3.7625294742670751e-01  3.3644722229781793e-01  3.0621388350687728e-01  2.8433405049136568e-01  2.6941979569423724e-01  2.6025244218693638e-01  2.5595004948743921e-01  2.5604988290126168e-01  2.6053411981823765e-01  2.6980462676462197e-01  2.8461169025809890e-01  3.0594524854894739e-01  3.3489398174169183e-01  3.7246723064185455e-01  4.1936819774752976e-01  4.7572334111411679e-01  5.4083342256919953e-01  6.1312158786648108e-01  6.9056846