<?xml version="1.0"?>
<VTKFile type="UnstructuredGrid"  version="0.1"  >
<UnstructuredGrid>
<Piece  NumberOfPoints="5305" NumberOfCells="10404">
<Points>
<DataArray  type="Float64"  NumberOfComponents="3"  format="ascii">-5 -5 0  -4.803921568627451 -5 0  -4.607843137254902 -5 0  -4.411764705882353 -5 0  -4.215686274509804 -5 0  -4.019607843137255 -5 0  -3.823529411764706 -5 0  -3.627450980392157 -5 0  -3.431372549019608 -5 0  -3.235294117647059 -5 0  -3.03921568627451 -5 0  -2.843137254901961 -5 0  -2.647058823529412 -5 0  -2.450980392156863 -5 0  -2.254901960784314 -5 0  -2.058823529411764 -5 0  -1.862745098039216 -5 0  -1.666666666666667 -5 0  -1.470588235294118 -5 0  -1.274509803921569 -5 0  -1.07843137254902 -5 0  -0.882352941176471 -5 0  -0.6862745098039218 -5 0  -0.4901960784313726 -5 0  -0.2941176470588234 -5 0  -0.09803921568627416 -5 0  0.09803921568627416 -5 0  0.2941176470588234 -5 0  0.4901960784313726 -5 0  0.6862745098039218 -5 0  0.882352941176471 -5 0  1.078431372549019 -5 0  1.274509803921569 -5 0  1.470588235294118 -5 0  1.666666666666667 -5 0  1.862745098039215 -5 0  2.058823529411764 -5 0  2.254901960784314 -5 0  2.450980392156863 -5 0  2.647058823529412 -5 0  2.84313725490196 -5 0  3.03921568627451 -5 0  3.235294117647058 -5 0  3.431372549019608 -5 0  3.627450980392156 -5 0  3.823529411764707 -5 0  4.019607843137255 -5 0  4.215686274509803 -5 0  4.411764705882353 -5 0  4.607843137254902 -5 0  4.803921568627452 -5 0  5 -5 0  -5 -4.803921568627451 0  -4.803921568627451 -4.803921568627451 0  -4.607843137254902 -4.803921568627451 0  -4.411764705882353 -4.803921568627451 0  -4.215686274509804 -4.803921568627451 0  -4.019607843137255 -4.803921568627451 0  -3.823529411764706 -4.803921568627451 0  -3.627450980392157 -4.803921568627451 0  -3.431372549019608 -4.803921568627451 0  -3.235294117647059 -4.803921568627451 0  -3.03921568627451 -4.803921568627451 0  -2.843137254901961 -4.803921568627451 0  -2.647058823529412 -4.803921568627451 0  -2.450980392156863 -4.803921568627451 0  -2.254901960784314 -4.803921568627451 0  -2.058823529411764 -4.803921568627451 0  -1.862745098039216 -4.803921568627451 0  -1.666666666666667 -4.803921568627451 0  -1.470588235294118 -4.803921568627451 0  -1.274509803921569 -4.803921568627451 0  -1.07843137254902 -4.803921568627451 0  -0.882352941176471 -4.803921568627451 0  -0.6862745098039218 -4.803921568627451 0  -0.4901960784313726 -4.803921568627451 0  -0.2941176470588234 -4.803921568627451 0  -0.09803921568627416 -4.803921568627451 0  0.09803921568627416 -4.803921568627451 0  0.2941176470588234 -4.803921568627451 0  0.4901960784313726 -4.803921568627451 0  0.6862745098039218 -4.803921568627451 0  0.882352941176471 -4.803921568627451 0  1.078431372549019 -4.803921568627451 0  1.274509803921569 -4.803921568627451 0  1.470588235294118 -4.803921568627451 0  1.666666666666667 -4.803921568627451 0  1.862745098039215 -4.803921568627451 0  2.058823529411764 -4.803921568627451 0  2.254901960784314 -4.803921568627451 0  2.450980392156863 -4.803921568627451 0  2.647058823529412 -4.803921568627451 0  2.84313725490196 -4.803921568627451 0  3.03921568627451 -4.803921568627451 0  3.235294117647058 -4.803921568627451 0  3.431372549019608 -4.803921568627451 0  3.627450980392156 -4.803921568627451 0  3.823529411764707 -4.803921568627451 0  4.019607843137255 -4.803921568627451 0  4.215686274509803 -4.803921568627451 0  4.411764705882353 -4.803921568627451 0  4.607843137254902 -4.803921568627451 0  4.803921568627452 -4.803921568627451 0  5 -4.803921568627451 0  -5 -4.607843137254902 0  -4.803921568627451 -4.607843137254902 0  -4.607843137254902 -4.607843137254902 0  -4.411764705882353 -4.607843137254902 0  -4.215686274509804 -4.607843137254902 0  -4.019607843137255 -4.607843137254902 0  -3.823529411764706 -4.607843137254902 0  -3.627450980392157 -4.607843137254902 0  -3.431372549019608 -4.607843137254902 0  -3.235294117647059 -4.607843137254902 0  -3.03921568627451 -4.607843137254902 0  -2.843137254901961 -4.607843137254902 0  -2.647058823529412 -4.607843137254902 0  -2.450980392156863 -4.607843137254902 0  -2.254901960784314 -4.607843137254902 0  -2.058823529411764 -4.607843137254902 0  -1.862745098039216 -4.607843137254902 0  -1.666666666666667 -4.607843137254902 0  -1.470588235294118 -4.607843137254902 0  -1.274509803921569 -4.607843137254902 0  -1.07843137254902 -4.607843137254902 0  -0.882352941176471 -4.607843137254902 0  -0.6862745098039218 -4.607843137254902 0  -0.4901960784313726 -4.607843137254902 0  -0.2941176470588234 -4.607843137254902 0  -0.09803921568627416 -4.607843137254902 0  0.09803921568627416 -4.607843137254902 0  0.2941176470588234 -4.607843137254902 0  0.4901960784313726 -4.607843137254902 0  0.6862745098039218 -4.607843137254902 0  0.882352941176471 -4.607843137254902 0  1.078431372549019 -4.607843137254902 0  1.274509803921569 -4.607843137254902 0  1.470588235294118 -4.607843137254902 0  1.666666666666667 -4.607843137254902 0  1.862745098039215 -4.607843137254902 0  2.058823529411764 -4.607843137254902 0  2.254901960784314 -4.607843137254902 0  2.450980392156863 -4.607843137254902 0  2.647058823529412 -4.607843137254902 0  2.84313725490196 -4.607843137254902 0  3.03921568627451 -4.607843137254902 0  3.235294117647058 -4.607843137254902 0  3.431372549019608 -4.607843137254902 0  3.627450980392156 -4.607843137254902 0  3.823529411764707 -4.607843137254902 0  4.019607843137255 -4.607843137254902 0  4.215686274509803 -4.607843137254902 0  4.411764705882353 -4.607843137254902 0  4.607843137254902 -4.607843137254902 0  4.803921568627452 -4.607843137254902 0  5 -4.607843137254902 0  -5 -4.411764705882353 0  -4.803921568627451 -4.411764705882353 0  -4.607843137254902 -4.411764705882353 0  -4.411764705882353 -4.411764705882353 0  -4.215686274509804 -4.411764705882353 0  -4.019607843137255 -4.411764705882353 0  -3.823529411764706 -4.411764705882353 0  -3.627450980392157 -4.411764705882353 0  -3.431372549019608 -4.411764705882353 0  -3.235294117647059 -4.411764705882353 0  -3.03921568627451 -4.411764705882353 0  -2.843137254901961 -4.411764705882353 0  -2.647058823529412 -4.411764705882353 0  -2.450980392156863 -4.411764705882353 0  -2.254901960784314 -4.411764705882353 0  -2.058823529411764 -4.411764705882353 0  -1.862745098039216 -4.411764705882353 0  -1.666666666666667 -4.411764705882353 0  -1.470588235294118 -4.411764705882353 0  -1.274509803921569 -4.411764705882353 0  -1.07843137254902 -4.411764705882353 0  -0.882352941176471 -4.411764705882353 0  -0.6862745098039218 -4.411764705882353 0  -0.4901960784313726 -4.411764705882353 0  -0.2941176470588234 -4.411764705882353 0  -0.09803921568627416 -4.411764705882353 0  0.09803921568627416 -4.411764705882353 0  0.2941176470588234 -4.411764705882353 0  0.4901960784313726 -4.411764705882353 0  0.6862745098039218 -4.411764705882353 0  0.882352941176471 -4.411764705882353 0  1.078431372549019 -4.411764705882353 0  1.274509803921569 -4.411764705882353 0  1.470588235294118 -4.411764705882353 0  1.666666666666667 -4.411764705882353 0  1.862745098039215 -4.411764705882353 0  2.058823529411764 -4.411764705882353 0  2.254901960784314 -4.411764705882353 0  2.450980392156863 -4.411764705882353 0  2.647058823529412 -4.411764705882353 0  2.84313725490196 -4.411764705882353 0  3.03921568627451 -4.411764705882353 0  3.235294117647058 -4.411764705882353 0  3.431372549019608 -4.411764705882353 0  3.627450980392156 -4.411764705882353 0  3.823529411764707 -4.411764705882353 0  4.019607843137255 -4.411764705882353 0  4.215686274509803 -4.411764705882353 0  4.411764705882353 -4.411764705882353 0  4.607843137254902 -4.411764705882353 0  4.803921568627452 -4.411764705882353 0  5 -4.411764705882353 0  -5 -4.215686274509804 0  -4.803921568627451 -4.215686274509804 0  -4.607843137254902 -4.215686274509804 0  -4.411764705882353 -4.215686274509804 0  -4.215686274509804 -4.215686274509804 0  -4.019607843137255 -4.215686274509804 0  -3.823529411764706 -4.215686274509804 0  -3.627450980392157 -4.215686274509804 0  -3.431372549019608 -4.215686274509804 0  -3.235294117647059 -4.215686274509804 0  -3.03921568627451 -4.215686274509804 0  -2.843137254901961 -4.215686274509804 0  -2.647058823529412 -4.215686274509804 0  -2.450980392156863 -4.215686274509804 0  -2.254901960784314 -4.215686274509804 0  -2.058823529411764 -4.215686274509804 0  -1.862745098039216 -4.215686274509804 0  -1.666666666666667 -4.215686274509804 0  -1.470588235294118 -4.215686274509804 0  -1.274509803921569 -4.215686274509804 0  -1.07843137254902 -4.215686274509804 0  -0.882352941176471 -4.215686274509804 0  -0.6862745098039218 -4.215686274509804 0  -0.4901960784313726 -4.215686274509804 0  -0.2941176470588234 -4.215686274509804 0  -0.09803921568627416 -4.215686274509804 0  0.09803921568627416 -4.215686274509804 0  0.2941176470588234 -4.215686274509804 0  0.4901960784313726 -4.215686274509804 0  0.6862745098039218 -4.215686274509804 0  0.882352941176471 -4.215686274509804 0  1.078431372549019 -4.215686274509804 0  1.274509803921569 -4.215686274509804 0  1.470588235294118 -4.215686274509804 0  1.666666666666667 -4.215686274509804 0  1.862745098039215 -4.215686274509804 0  2.058823529411764 -4.215686274509804 0  2.254901960784314 -4.215686274509804 0  2.450980392156863 -4.215686274509804 0  2.647058823529412 -4.215686274509804 0  2.84313725490196 -4.215686274509804 0  3.03921568627451 -4.215686274509804 0  3.235294117647058 -4.215686274509804 0  3.431372549019608 -4.215686274509804 0  3.627450980392156 -4.215686274509804 0  3.823529411764707 -4.215686274509804 0  4.019607843137255 -4.215686274509804 0  4.215686274509803 -4.215686274509804 0  4.411764705882353 -4.215686274509804 0  4.607843137254902 -4.215686274509804 0  4.803921568627452 -4.215686274509804 0  5 -4.215686274509804 0  -5 -4.019607843137255 0  -4.803921568627451 -4.019607843137255 0  -4.607843137254902 -4.019607843137255 0  -4.411764705882353 -4.019607843137255 0  -4.215686274509804 -4.019607843137255 0  -4.019607843137255 -4.
[...]
<PointData  Scalars="f_37"> 
<DataArray  type="Float64"  Name="f_37"  format="ascii">3.3203459330396385e+00  3.2946995435211224e+00  3.2645491471104422e+00  3.2505561045153035e+00  3.2583457221233423e+00  3.2913475267049663e+00  3.3530081481177301e+00  3.4471888025932795e+00  3.5773806805777317e+00  3.7449467080184866e+00  3.9466131845520782e+00  4.1718768865854177e+00  4.4016075589093342e+00  4.6094534962813416e+00  4.7669914700963396e+00  4.8515732848191169e+00  4.8535268474333861e+00  4.7789303104665901e+00  4.6466120947689831e+00  4.4814507698258241e+00  4.3075735461873235e+00  4.1440039532707136e+00  4.0032959186676704e+00  3.8923251200675941e+00  3.8140676861666054e+00  3.7694630555321473e+00  3.7588592414078015e+00  3.7828317127463471e+00  3.8423041068088439e+00  3.9379357815019342e+00  4.0687719067758685e+00  4.2302757415583407e+00  4.4121586925218770e+00  4.5968864966700114e+00  4.7601572418980185e+00  4.8745162392733068e+00  4.9160430869360230e+00  4.8718893162481134e+00  4.7449000521680587e+00  4.5525313885446499e+00  4.3206024596421635e+00  4.0753360999369708e+00  3.8373190934271895e+00  3.6189958407986880e+00  3.4252066345528847e+00  3.2553564032327276e+00  3.1059473503518005e+00  2.9728006467360570e+00  2.8528788942437249e+00  2.7461508577917066e+00  2.6584057412750699e+00  2.6130611820695275e+00  2.1342038698458907e+00  2.1284015695933047e+00  2.1220722813635691e+00  2.1311802595160008e+00  2.1624634888359635e+00  2.2194404678430528e+00  2.3052625162539879e+00  2.4232187833817735e+00  2.5760131718173365e+00  2.7640600123934020e+00  2.9830950549183308e+00  3.2217959444675794e+00  3.4606556085763831e+00  3.6735879491431689e+00  3.8330355298220975e+00  3.9174702319360519e+00  3.9181271888610043e+00  3.8415121234198915e+00  3.7064921980215639e+00  3.5378982666454677e+00  3.3599769994867206e+00  3.1921099299127333e+00  3.0473688515052761e+00  2.9331747349227850e+00  2.8529630016681380e+00  2.8079772549936499e+00  2.7986828659968790e+00  2.8255750201028089e+00  2.8892969480465531e+00  2.9900315779242743e+00  3.1261745437635136e+00  3.2924320560295763e+00  3.4777800097814922e+00  3.6641518640166653e+00  3.8270801240899228e+00  3.9393324642753642e+00  3.9773859492858490e+00  3.9285935571883042e+00  3.7955403400988263e+00  3.5950336458264540e+00  3.3522162154253721e+00  3.0929743266562366e+00  2.8380463966652338e+00  2.6004378262232382e+00  2.3857829725227342e+00  2.1943669210102317e+00  2.0236034407804153e+00  1.8703107622697406e+00  1.7327221408357747e+00  1.6127168996014158e+00  1.5199198458569916e+00  1.4803500227427440e+00  1.3699041959893437e+00  1.3752542035719608e+00  1.3874977669705764e+00  1.4113039623974493e+00  1.4529554282665982e+00  1.5170543133935974e+00  1.6072656803182113e+00  1.7267086527268225e+00  1.8774099882981337e+00  2.0589023011882648e+00  2.2662759336471745e+00  2.4883603602637554e+00  2.7071119467625451e+00  2.8993585193814400e+00  3.0413464476538428e+00  3.1150100921504924e+00  3.1133914766075135e+00  3.0425582014251313e+00  2.9191609766380755e+00  2.7651393159789408e+00  2.6021977752873626e+00  2.4480414960919101e+00  2.3149441816847922e+00  2.2101404652843573e+00  2.1371652070579801e+00  2.0973844246780273e+00  2.0912462878584108e+00  2.1190202167252288e+00  2.1809216183602027e+00  2.2765763048258800e+00  2.4038439498975448e+00  2.5571684104113670e+00  2.7258904999845486e+00  2.8933033858416981e+00  3.0374581034219861e+00  3.1344707061720563e+00  3.1640433432549546e+00  3.1153687089202062e+00  2.9906472849318648e+00  2.8042592840304734e+00  2.5779647989582761e+00  2.3345814939883653e+00  2.0928768767301564e+00  1.8651109342545678e+00  1.6571017372279924e+00  1.4698445711684713e+00  1.3016916889980552e+00  1.1505163690438192e+00  1.0157856361588418e+00  9.0091107723299169e-01  8.1637334533021433e-01  7.8212686456848401e-01  8.7099245197091713e-01  8.8106681906819362e-01  9.0242872452704537e-01  9.3322261895150049e-01  9.7726070340851789e-01  1.0389603032028980e+00  1.1221139518390397e+00  1.2296140686649473e+00  1.3629103376852056e+00  1.5209380750509309e+00  1.6987183548442928e+00  1.8861849409235452e+00  2.0680587629179481e+00  2.2255413733554605e+00  2.3399894625926736e+00  2.3976416045840931e+00  2.3935332570343064e+00  2.3328017249703810e+00  2.2288405575492423e+00  2.0993538280377742e+00  1.9621441603103844e+00  1.8320976201762520e+00  1.7198728428143768e+00  1.6320073993370943e+00  1.5718336871577601e+00  1.5406368102642376e+00  1.5386706184027006e+00  1.5658169134381088e+00  1.6217612207621275e+00  1.7056069770456896e+00  1.8149374900269621e+00  1.9445028530802968e+00  2.0849436577145530e+00  2.2222019315949164e+00  2.3383640120010982e+00  2.4143910372491733e+00  2.4343819808061951e+00  2.3899601638394596e+00  2.2828252447931456e+00  2.1241392831636343e+00  1.9310025854307691e+00  1.7217010313075924e+00  1.5116891508702108e+00  1.3114624849633409e+00  1.1263788984556418e+00  9.5781200485485696e-01  8.0491834660111228e-01  6.6655549414111337e-01  5.4321960122492130e-01  4.3905521266295144e-01  3.6378682654271161e-01  3.3374547134080584e-01  5.4068947022712344e-01  5.5216221845106006e-01  5.7674389761113953e-01  6.0945344590627837e-01  6.5167256382739658e-01  7.0670639101029464e-01  7.7784453056695113e-01  8.6754148651751761e-01  9.7677808384600451e-01  1.1042483078959813e+00  1.2454454504527259e+00  1.3920283770673578e+00  1.5320142039476814e+00  1.6512471894189795e+00  1.7361347508712992e+00  1.7769411769196755e+00  1.7704053093288592e+00  1.7205648546574348e+00  1.6374780612826250e+00  1.5345166505023951e+00  1.4254074373310901e+00  1.3220009959001591e+00  1.2331502665570844e+00  1.1645582120933329e+00  1.1192334675754032e+00  1.0982109992473661e+00  1.1013068854789412e+00  1.1277514503221735e+00  1.1765295157212163e+00  1.2462505284224596e+00  1.3344919634734023e+00  1.4367892925456274e+00  1.5456736822562325e+00  1.6502977813253747e+00  1.7371698306518111e+00  1.7922260378700199e+00  1.8038855279400507e+00  1.7660796617660786e+00  1.6799739276894541e+00  1.5535477295880440e+00  1.3991970515312269e+00  1.2304269677879269e+00  1.0589319838670717e+00  8.9290967832199308e-01  7.3676305501217854e-01  5.9186341999925374e-01  4.5791822346395483e-01  3.3460783044938691e-01  2.2331874338832167e-01  1.2882815160459618e-01  6.0628089562295581e-02  3.3480186635605064e-02  3.1940064263802981e-01  3.3078566159989914e-01  3.5556706900118834e-01  3.8751546994192948e-01  4.2617099220080551e-01  4.7347096290541402e-01  5.3184064931058050e-01  6.0315289588048959e-01  6.8802870271040228e-01  7.8520471288141169e-01  8.9096992462435942e-01  9.9889107642958896e-01  1.1001431214758757e+00  1.1846688899203870e+00  1.2430865308540657e+00  1.2688524220527484e+00  1.2599200442189364e+00  1.2192465167908262e+00  1.1539856977869960e+00  1.0737779130672158e+00  9.8884329338404442e-01  9.0846903352703734e-01  8.4010725171460965e-01  7.8897695093516562e-01  7.5798145754426782e-01  7.4785985174061276e-01  7.5763016447230735e-01  7.8533624631016441e-01  8.2882320017592337e-01  8.8607478412211005e-01  9.5485384339526780e-01  1.0318351016069343e+00  1.1117266612500756e+00  1.1869086449734727e+00  1.2479591834141910e+00  1.2851332062220004e+00  1.2904534813540023e+00  1.2597132504174564e+00  1.1935901994449138e+00  1.0973790460009183e+00  9.7944878057410778e-01  8.4906814292864896e-01  7.1440884261648885e-01  5.8130548506102175e-01  4.5295262371502232e-01  3.3040898401822733e-01  2.1366570317426170e-01  1.0306511725854940e-01  8.8955485124445717e-04  -8.7151758152574754e-02  -1.5100113638646115e-01  -1.7631367392564301e-01  1.6985668296715703e-01  1.8048290655429836e-01  2.0404721014031105e-01  2.3406466066940371e-01  2.6882097492077112e-01  3.0899068205194569e-01  3.5605786809862566e-01  4.1129171288017513e-01  4.7505381312130934e-01  5.4628702147780939e-01  6.2216621068973121e-01  6.9801544493708190e-01  7.6764637353130483e-01  8.2420539247603242e-01  8.6143404026881276e-01  8.7502559641808486e-01  8.6363820206099262e-01  8.2921347648662558e-01  7.7653390471693173e-01  7.1227272836838218e-01  6.4394873469413072e-01  5.7909433865504134e-01  5.2464401710863373e-01  4.8629599777406529e-01  4.6765875711002786e-01  4.6940855674171950e-01  4.8916622739340315e-01  5.2263323192972644e-01  5.6547283948342475e-01  6.1462000085403989e-01  6.6820505016216381e-01  7.2444795007225071e-01  7.8045587161237306e-01  8.3163797387274341e-01  8.7199745717571631e-01  8.9518324606796162e-01  8.9592950781564551e-01  8.7137846788849982e-01  8.2180004632229975e-01  7.5043641299178554e-01  6.6254654640399724e-01  5.6403071623091416e-01  4.6012279227757125e-01  3.5453129050171117e-01  2.4919962569379026e-01  1.4467855898027937e-01  4.1022949566399805e-02  -6.0897445977677982e-02  -1.5785649266055399e-01  -2.4290409443851430e-01  -3.0485838560733902e-01  -3.2922520310465153e-01  6.7837145607209146e-02  7.7433672303036521e-02  9.9207023209682291e-02  1.2697193132022447e-01  1.5821981893126719e-01  1.9258338406102016e-01  2.3068165748662717e-01  2.7323646421456521e-01  3.2043136526448318e-01  3.7147618151462913e-01  4.2436551957787744e-01  4.7586790165225995e-01  5.2180145208176387e-01  5.5760999009909606e-01  5.7915448158747684e-01  5.8352595630067616e-01  5.6963952559748865e-01  5.3843814012326818e-01  4.9270758831603556e-01  4.3669603221969816e-01  3.7582043826819106e-01  3.1661669485526367e-01  2.6669971146208615e-01  2.3404253131224084e-01  2.2489783380747522e-01  2.4079484929132880e-01  2.7689184569960079e-01  3.2401265782524574e-01  3.7337339621805599e-01  4.2009798451069802e-01  4.6321223444616322e-01  5.0334481776285100e-01  5.4047031334625839e-01  5.7287396633290422e-01  5.9731952464120919e-01  6.0993758894180761e-01  6.0733464501030288e-01  5.8753196852460143e-01  5.5045752490537347e-01  4.9786786059385529e-01  4.3276771791771113e-01  3.5855592936763148e-01  2.7818937272900190e-01  1.9361350922678275e-01  1.0561079610244643e-01  1.4133590096148620e-02  -8.0858074901543467e-02  -1.7808640960300476e-01  -2.7337305019193936e-01  -3.5834591533172511e-01  -4.2038589824000444e-01  -4.4452709264269819e-01  -3.2193137970311057e-03  5.3074141651226385e-03  2.5225103504431374e-02  5.0937820822750578e-02  7.9454445366396384e-02  1.0957322928161396e-01  1.4116785380912705e-01  1.7449571624202775e-01  2.0962316549555277e-01  2.4602788307209017e-01  2.8239240788775272e-01  3.1659318975542011e-01  3.4588671151814210e-01  3.6726997843767950e-01  3.7794498679445193e-01  3.7576980449625991e-01  3.5956966078221786e-01  3.2923859870408334e-01  2.8568667051273722e-01  2.3084457814161910e-01  1.6805051133024310e-01  1.0305119775931465e-01  4.5272537060620427e-02  7.8253023997502582e-03  3.7884403858442456e-03  3.8292575663531662e-02  1.0218183603043654e-01  1.7578233117066885e-01  2.4119447385261830e-01  2.9093554540568939e-01  3.2673267192626237e-01  3.5356333756514585e-01  3.7517438316245971e-01  3.9263287720051920e-01  4.0479502895494607e-01  4.0942259236112111e-01  4.0426022559295915e-01  3.8780388553618933e-01  3.5966888919015716e-01  3.2055535275362362e-01  2.7188960031406412e-01  2.1528850093164537e-01  1.5202431465821364e-01  8.2655893750371481e-02  6.9609667912022806e-03  -7.5718362572155681e-02  -1.6562091977285023e-01  -2.6117928970300719e-01  -3.5732892275907685e-01  -4.4424819719593261e-01  -5.0775443537153631e-01  -5.3219638993809193e-01  -5.5289720773847230e-02  -4.7694410628476049e-02  -2.9291958926998079e-02  -5.0119020058340185e-03  2.1823998076960911e-02  4.9315600015588504e-02  7.6697809276295978e-02  1.0384687314323837e-01  1.3076202444073948e-01  1.5717193080755934e-01  1.8231646726718928e-01  2.0489852212757506e-01  2.2317959581069624e-01  2.3517847474728107e-01  2.3891263619071751e-01  2.3260517235927225e-01  2.1478471146151681e-01  1.8425252978615447e-01  1.3999789721777964e-01  8.1326021947920629e-02  8.7133237255170512e-03  -7.3920076453931935e-02  -1.5535623393553463e-01  -2.1385689425672708e-01  -2.2130307903440521e-01  -1.6126694525666582e-01  -4.9931844112316354e-02  6.9857028121572143e-02  1.6199772208089558e-01  2.1729222771062845e-01  2.4525509632365150e-01  2.5874147042384332e-01  2.6626168814572809e-01  2.7124271583447185e-01  2.7376238141219966e-01  2.7236373989126728e-01  2.6529308803475848e-01  2.5119056407265650e-01  2.2936513529180771e-01  1.9976341497345956e-01  1.6272692104665856e-01  1.1863853878648192e-01  6.7568158246845159e-02  9.0324389346582244e-03  -5.8008072844674505e-02  -1.3477236912064500e-01  -2.2175260905271796e-01  -3.1721317787055109e-01  -4.1535589229812275e-01  -5.0505045489154365e-01  -5.7061612631156011e-01  -5.9561907248740598e-01  -9.7322533728606192e-02  -9.0351003059304325e-02  -7.2735795199301082e-02  -4.8868356049004039e-02  -2.2413854558139691e-02  4.0774365005563085e-03  2.9279350665766403e-02  5.2767461916836809e-02  7.4527808235396259e-02  9.4535025839643350e-02  1.1249279023148957e-01  1.2773284286587785e-01  1.3923213048254474e-01  1.4569766002283141e-01  1.4566307284097374e-01  1.3753551474576750e-01  1.1953420298929612e-01  8.9489871640857463e-02  4.4558462282287888e-02  -1.8893849767116326e-02  -1.0453487333906819e-01  -2.1301664398715084e-01  -3.3462603145712427e-01  -4.3812522529488684e-01  -4.6751691192835565e-01  -3.7463172287133439e-01  -1.8413321813379430e-01  8.6740529944604773e-03  1.3376192948255433e-01  1.8921084517935230e-01  2.0352703114111492e-01  2.0131569145304143e-01  1.9538368950056323e-01  1.9002620747487384e-01  1.8531367857198444e-01  1.7975189967790961e-01  1.7160558213565991e-01  1.5944759080159648e-01  1.4230784549845443e-01  1.1960488080708574e-01  9.0953211175926266e-02  5.5910420665066275e-02  1.3728546901230609e-02  -3.6808459863257273e-02  -9.7345924164370171e-02  -1.6955606693730507e-01  -2.5418257478097300e-01  -3.4943526781663703e-01  -4.4901925088920547e-01  -5.4082851689724720e-01  -6.0800473068041239e-01  -6.3345178818147097e-01  -1.3572386280558243e-01  -1.2891606760171409e-01  -1.1101942123436899e-01  -8.6209084467913533e-02  -5.8653709392932345e-02  -3.1579228871528281e-02  -6.8160316142811522e-03  1.4995371830018102e-02  3.3895933747402809e-02  5.0126690579053571e-02  6.3809134213620805e-02  7.4787662860622175e-02  8.2585066838712182e-02  8.6415713282125675e-02  8.5203260519912047e-02  7.7546511793222209e-02  6.1569246611889276e-02  3.4589004141182135e-02  -7.4253079801296059e-03  -7.0485758828750300e-02  -1.6273477441692902e-01  -2.9229704093746417e-01  -4.5886060878239526e-01  -6.3200456419273376e-01  -7.2079128174742002e-01  -5.9891342497207445e-01  -2.8235017159633202e-01  7.8572831050249450e-03  1.5154855740629364e-01  1.8837955280795468e-01  1.8028624579798619e-01  1.6161039382232281e-01  1.4489057401485764e-01  1.3266229991156975e-01  1.2379554815205690e-01  1.1629652601028509e-01  1.0828554166093327e-01  9.8254560051905485e-02  8.5051054560372513e-02  6.7759503676950869e-02  4.5536876422329363e-02  1.7425815633243712e-02  -1.7825574698008977e-02  -6.1878883458168756e-02  -1.1674599050003576e-01  -1.8438054761604850e-01  -2.6570580759175227e-01  -3.5895959672909850e-01  -4.5765093312112654e-01  -5.4923198242453186e-01  -6.1631218319101932e-01  -6.4160409530494733e-01  -1.7415139420610318e-01  -1.6696096875976232e-01  -1.4754149602136724e-01  -1.2030932587674860e-01  -9.0186175957053055e-02  -6.1134342853234304e-02  -3.5435411453163639e-02  -1.3853597271460769e-02  3.7886094099602659e-03  1.8042715753867261e-02  2.9443367943457397e-02  3.8294793402424303e-02  4.4579063545696421e-02  4.7931595331801413e-02  4.7638970101896008e-02  4.2610724459706754e-02  3.1257995108794373e-02  1.1186339091529017e-02  -2.1404578912020959e-02  -7.2687113037496087e-02  -1.5235925256200919e-01  -2.7409941431021301e-01  -4.5137935646505528e-01  -6.8085990261680485e-01  -8.8045702201586384e-01  -7.8595325754998158e-01  -2.8680759126898131e-01  7.8161063016585874e-02  1.8046810381786291e-01  1.7541927572545438e-01  1.4662553726798316e-01  1.1945781938224100e-01  9.9718430055040205e-02  8.6494663575082772e-02  7.7552662559349728e-02  7.0767084506654629e-02  6.4423352446862370e-02  5.7148442221819369e-02  4.7778863887831445e-02  3.5238989359910863e-02  1.8431014747218796e-02  -3.8801226515982616e-03  -3.3186912662729516e-02  -7.1321748201046725e-02  -1.2039491293032348e-01  -1.8240721600193754e-01  -2.5831292152680857e-01  -3.4640608298895609e-01  -4.4032388424082425e-01  -5.2777410161611260e-01  -5.9180919341025606e-01  -6.1584608433113930e-01  -2.1312179692688663e-01  -2.0504941331944407e-01  -1.8301514834930435e-01  -1.5214203712609023e-01  -1.1834266026609615e-01  -8.6358572882359319e-02  -5.8860275103282872e-02  -3.6643344346394602e-02  -1.9312294328710171e-02  -5.9504900475119806e-03  4.4129532902786265e-03  1.2532043538041491e-02  1.8808201410247284e-02  2.3245864345015865e-02  2.5476216514476551e-02  2.4821380721253433e-02  2.0342889162414519e-02  1.0785601778370162e-02  -5.6917802664844903e-03  -3.2102390426724671e-02  -7.3629754551115978e-02  -1.3878974939965308e-01  -2.4116827069088964e-01  -3.9508158701954244e-01  -6.2321521125142154e-01  -7.7719243368529023e-01  -8.9346084419536717e-02  1.2508295187675333e-01  1.2288137049304014e-01  1.0124760357862261e-01  7.8589755801283565e-02  6.2342056542197967e-02  5.1365577706502727e-02  4.4168014520494930e-02  3.9337011917716234e-02  3.5793966777192834e-02  3.2625773710081442e-02  2.8923122144147970e-02  2.3682797430953122e-02  1.5783827632834112e-02  3.9972339804601690e-03  -1.3022352997880127e-02  -3.6788094005416903e-02  -6.9040112982891921e-02  -1.1170075475973205e-01  -1.6654058685880685e-01  -2.3433652898305987e-01  -3.1340810818726772e-01  -3.9782192028199859e-01  -4.7630603304707653e-01  -5.3354076610653289e-01  -5.5487804899877535e-01  -2.5006815279830291e-01  -2.4083357944304967e-01  -2.1564254581935050e-01  -1.8062442677794158e-01  -1.4278960503916827e-01  -1.0763477625775318e-01  -7.8146153674150357e-02  -5.5077618774229543e-02  -3.7756551452797688e-02  -2.4852498810929519e-02  -1.4918012559795879e-02  -6.7271843103357846e-03  5.2493622497827466e-04  7.1451032166630728e-03  1.3010186151754153e-02  1.7791406844386581e-02  2.1290192169487063e-02  2.3801291688500131e-02  2.6442302071408838e-02  3.1456823714517718e-02  4.2598499677498715e-02  6.5459265879965589e-02  1.0883687954013523e-01  1.8005909154248023e-01  3.1840788226085592e-01  3.8429013715548571e-01  1.7882789414636797e-02  -8.4017806706398565e-02  -4.8527731121259014e-02  -3.1260757164681213e-02  -1.5058581641085447e-02  -4.8218725580943204e-03  1.1609936471744314e-03  4.3135498249302793e-03  6.0165244069220721e-03  7.1977913684869365e-03  8.2211765834053693e-03  8.8328381852704214e-03  8.2246620774115691e-03  5.2080435007051396e-03  -1.5716375200625439e-03  -1.3483740723447256e-02  -3.1884074765508766e-02  -5.8171772261563726e-02  -9.3795743213059252e-02  -1.4001318775931582e-01  -1.9720031171189781e-01  -2.6363857222194170e-01  -3.3406919391295331e-01  -3.9893743753702632e-01  -4.4569703045093528e-01  -4.6289962113223548e-01  -2.8033179450729828e-01  -2.7000575828651463e-01  -2.4196266678032427e-01  -2.0333128852930143e-01  -1.6211030957060418e-01  -1.2443356821453483e-01  -9.3527393799105824e-02  -7.0072001159103225e-02  -5.3101528331655462e-02  -4.0840016051102962e-02  -3.1303092094274822e-02  -2.2725890855685386e-02  -1.3884486135699469e-02  -4.2725555985759205e-03  5.9864503674847795e-03  1.6569946340687081e-02  2.7663432625185429e-02  4.0776013135439569e-02  5.9553922949177926e-02  9.0639607241925088e-02  1.4458893597474914e-01  2.3650794371134085e-01  3.8306193099548808e-01  5.9371967635542477e-01  7.9894661145143464e-01  7.1983263772874551e-01  1.7746374315175181e-01  -1.2666837214153434e-01  -1.7197358035816079e-01  -1.3471705626296571e-01  -9.3784314627857121e-02  -6.2468569333160147e-02  -4.2391641753310186e-02  -3.0375512945815541e-02  -2.2901678973036833e-02  -1.7215001467648948e-02  -1.1759406018589411e-02  -6.2649304964393117e-03  -1.5662141372403166e-03  8.3298832101299180e-04  -7.1120157539652086e-04  -7.597665