<?xml version="1.0"?>
<VTKFile type="UnstructuredGrid"  version="0.1"  >
<UnstructuredGrid>
<Piece  NumberOfPoints="5101" NumberOfCells="10000">
<Points>
<DataArray  type="Float64"  NumberOfComponents="3"  format="ascii">0 0 0  0.2 0 0  0.4 0 0  0.6 0 0  0.8 0 0  1 0 0  1.2 0 0  1.4 0 0  1.6 0 0  1.8 0 0  2 0 0  2.2 0 0  2.4 0 0  2.6 0 0  2.8 0 0  3 0 0  3.2 0 0  3.4 0 0  3.6 0 0  3.8 0 0  4 0 0  4.2 0 0  4.4 0 0  4.6 0 0  4.8 0 0  5 0 0  5.2 0 0  5.4 0 0  5.6 0 0  5.8 0 0  6 0 0  6.2 0 0  6.4 0 0  6.6 0 0  6.8 0 0  7 0 0  7.2 0 0  7.4 0 0  7.6 0 0  7.8 0 0  8 0 0  8.199999999999999 0 0  8.4 0 0  8.6 0 0  8.800000000000001 0 0  9 0 0  9.199999999999999 0 0  9.4 0 0  9.6 0 0  9.800000000000001 0 0  10 0 0  0 0.2 0  0.2 0.2 0  0.4 0.2 0  0.6 0.2 0  0.8 0.2 0  1 0.2 0  1.2 0.2 0  1.4 0.2 0  1.6 0.2 0  1.8 0.2 0  2 0.2 0  2.2 0.2 0  2.4 0.2 0  2.6 0.2 0  2.8 0.2 0  3 0.2 0  3.2 0.2 0  3.4 0.2 0  3.6 0.2 0  3.8 0.2 0  4 0.2 0  4.2 0.2 0  4.4 0.2 0  4.6 0.2 0  4.8 0.2 0  5 0.2 0  5.2 0.2 0  5.4 0.2 0  5.6 0.2 0  5.8 0.2 0  6 0.2 0  6.2 0.2 0  6.4 0.2 0  6.6 0.2 0  6.8 0.2 0  7 0.2 0  7.2 0.2 0  7.4 0.2 0  7.6 0.2 0  7.8 0.2 0  8 0.2 0  8.199999999999999 0.2 0  8.4 0.2 0  8.6 0.2 0  8.800000000000001 0.2 0  9 0.2 0  9.199999999999999 0.2 0  9.4 0.2 0  9.6 0.2 0  9.800000000000001 0.2 0  10 0.2 0  0 0.4 0  0.2 0.4 0  0.4 0.4 0  0.6 0.4 0  0.8 0.4 0  1 0.4 0  1.2 0.4 0  1.4 0.4 0  1.6 0.4 0  1.8 0.4 0  2 0.4 0  2.2 0.4 0  2.4 0.4 0  2.6 0.4 0  2.8 0.4 0  3 0.4 0  3.2 0.4 0  3.4 0.4 0  3.6 0.4 0  3.8 0.4 0  4 0.4 0  4.2 0.4 0  4.4 0.4 0  4.6 0.4 0  4.8 0.4 0  5 0.4 0  5.2 0.4 0  5.4 0.4 0  5.6 0.4 0  5.8 0.4 0  6 0.4 0  6.2 0.4 0  6.4 0.4 0  6.6 0.4 0  6.8 0.4 0  7 0.4 0  7.2 0.4 0  7.4 0.4 0  7.6 0.4 0  7.8 0.4 0  8 0.4 0  8.199999999999999 0.4 0  8.4 0.4 0  8.6 0.4 0  8.800000000000001 0.4 0  9 0.4 0  9.199999999999999 0.4 0  9.4 0.4 0  9.6 0.4 0  9.800000000000001 0.4 0  10 0.4 0  0 0.6 0  0.2 0.6 0  0.4 0.6 0  0.6 0.6 0  0.8 0.6 0  1 0.6 0  1.2 0.6 0  1.4 0.6 0  1.6 0.6 0  1.8 0.6 0  2 0.6 0  2.2 0.6 0  2.4 0.6 0  2.6 0.6 0  2.8 0.6 0  3 0.6 0  3.2 0.6 0  3.4 0.6 0  3.6 0.6 0  3.8 0.6 0  4 0.6 0  4.2 0.6 0  4.4 0.6 0  4.6 0.6 0  4.8 0.6 0  5 0.6 0  5.2 0.6 0  5.4 0.6 0  5.6 0.6 0  5.8 0.6 0  6 0.6 0  6.2 0.6 0  6.4 0.6 0  6.6 0.6 0  6.8 0.6 0  7 0.6 0  7.2 0.6 0  7.4 0.6 0  7.6 0.6 0  7.8 0.6 0  8 0.6 0  8.199999999999999 0.6 0  8.4 0.6 0  8.6 0.6 0  8.800000000000001 0.6 0  9 0.6 0  9.199999999999999 0.6 0  9.4 0.6 0  9.6 0.6 0  9.800000000000001 0.6 0  10 0.6 0  0 0.8 0  0.2 0.8 0  0.4 0.8 0  0.6 0.8 0  0.8 0.8 0  1 0.8 0  1.2 0.8 0  1.4 0.8 0  1.6 0.8 0  1.8 0.8 0  2 0.8 0  2.2 0.8 0  2.4 0.8 0  2.6 0.8 0  2.8 0.8 0  3 0.8 0  3.2 0.8 0  3.4 0.8 0  3.6 0.8 0  3.8 0.8 0  4 0.8 0  4.2 0.8 0  4.4 0.8 0  4.6 0.8 0  4.8 0.8 0  5 0.8 0  5.2 0.8 0  5.4 0.8 0  5.6 0.8 0  5.8 0.8 0  6 0.8 0  6.2 0.8 0  6.4 0.8 0  6.6 0.8 0  6.8 0.8 0  7 0.8 0  7.2 0.8 0  7.4 0.8 0  7.6 0.8 0  7.8 0.8 0  8 0.8 0  8.199999999999999 0.8 0  8.4 0.8 0  8.6 0.8 0  8.800000000000001 0.8 0  9 0.8 0  9.199999999999999 0.8 0  9.4 0.8 0  9.6 0.8 0  9.800000000000001 0.8 0  10 0.8 0  0 1 0  0.2 1 0  0.4 1 0  0.6 1 0  0.8 1 0  1 1 0  1.2 1 0  1.4 1 0  1.6 1 0  1.8 1 0  2 1 0  2.2 1 0  2.4 1 0  2.6 1 0  2.8 1 0  3 1 0  3.2 1 0  3.4 1 0  3.6 1 0  3.8 1 0  4 1 0  4.2 1 0  4.4 1 0  4.6 1 0  4.8 1 0  5 1 0  5.2 1 0  5.4 1 0  5.6 1 0  5.8 1 0  6 1 0  6.2 1 0  6.4 1 0  6.6 1 0  6.8 1 0  7 1 0  7.2 1 0  7.4 1 0  7.6 1 0  7.8 1 0  8 1 0  8.199999999999999 1 0  8.4 1 0  8.6 1 0  8.800000000000001 1 0  9 1 0  9.199999999999999 1 0  9.4 1 0  9.6 1 0  9.800000000000001 1 0  10 1 0  0 1.2 0  0.2 1.2 0  0.4 1.2 0  0.6 1.2 0  0.8 1.2 0  1 1.2 0  1.2 1.2 0  1.4 1.2 0  1.6 1.2 0  1.8 1.2 0  2 1.2 0  2.2 1.2 0  2.4 1.2 0  2.6 1.2 0  2.8 1.2 0  3 1.2 0  3.2 1.2 0  3.4 1.2 0  3.6 1.2 0  3.8 1.2 0  4 1.2 0  4.2 1.2 0  4.4 1.2 0  4.6 1.2 0  4.8 1.2 0  5 1.2 0  5.2 1.2 0  5.4 1.2 0  5.6 1.2 0  5.8 1.2 0  6 1.2 0  6.2 1.2 0  6.4 1.2 0  6.6 1.2 0  6.8 1.2 0  7 1.2 0  7.2 1.2 0  7.4 1.2 0  7.6 1.2 0  7.8 1.2 0  8 1.2 0  8.199999999999999 1.2 0  8.4 1.2 0  8.6 1.2 0  8.800000000000001 1.2 0  9 1.2 0  9.199999999999999 1.2 0  9.4 1.2 0  9.6 1.2 0  9.800000000000001 1.2 0  10 1.2 0  0 1.4 0  0.2 1.4 0  0.4 1.4 0  0.6 1.4 0  0.8 1.4 0  1 1.4 0  1.2 1.4 0  1.4 1.4 0  1.6 1.4 0  1.8 1.4 0  2 1.4 0  2.2 1.4 0  2.4 1.4 0  2.6 1.4 0  2.8 1.4 0  3 1.4 0  3.2 1.4 0  3.4 1.4 0  3.6 1.4 0  3.8 1.4 0  4 1.4 0  4.2 1.4 0  4.4 1.4 0  4.6 1.4 0  4.8 1.4 0  5 1.4 0  5.2 1.4 0  5.4 1.4 0  5.6 1.4 0  5.8 1.4 0  6 1.4 0  6.2 1.4 0  6.4 1.4 0  6.6 1.4 0  6.8 1.4 0  7 1.4 0  7.2 1.4 0  7.4 1.4 0  7.6 1.4 0  7.8 1.4 0  8 1.4 0  8.199999999999999 1.4 0  8.4 1.4 0  8.6 1.4 0  8.800000000000001 1.4 0  9 1.4 0  9.199999999999999 1.4 0  9.4 1.4 0  9.6 1.4 0  9.800000000000001 1.4 0  10 1.4 0  0 1.6 0  0.2 1.6 0  0.4 1.6 0  0.6 1.6 0  0.8 1.6 0  1 1.6 0  1.2 1.6 0  1.4 1.6 0  1.6 1.6 0  1.8 1.6 0  2 1.6 0  2.2 1.6 0  2.4 1.6 0  2.6 1.6 0  2.8 1.6 0  3 1.6 0  3.2 1.6 0  3.4 1.6 0  3.6 1.6 0  3.8 1.6 0  4 1.6 0  4.2 1.6 0  4.4 1.6 0  4.6 1.6 0  4.8 1.6 0  5 1.6 0  5.2 1.6 0  5.4 1.6 0  5.6 1.6 0  5.8 1.6 0  6 1.6 0  6.2 1.6 0  6.4 1.6 0  6.6 1.6 0  6.8 1.6 0  7 1.6 0  7.2 1.6 0  7.4 1.6 0  7.6 1.6 0  7.8 1.6 0  8 1.6 0  8.199999999999999 1.6 0  8.4 1.6 0  8.6 1.6 0  8.800000000000001 1.6 0  9 1.6 0  9.199999999999999 1.6 0  9.4 1.6 0  9.6 1.6 0  9.800000000000001 1.6 0  10 1.6 0  0 1.8 0  0.2 1.8 0  0.4 1.8 0  0.6 1.8 0  0.8 1.8 0  1 1.8 0  1.2 1.8 0  1.4 1.8 0  1.6 1.8 0  1.8 1.8 0  2 1.8 0  2.2 1.8 0  2.4 1.8 0  2.6 1.8 0  2.8 1.8 0  3 1.8 0  3.2 1.8 0  3.4 1.8 0  3.6 1.8 0  3.8 1.8 0  4 1.8 0  4.2 1.8 0  4.4 1.8 0  4.6 1.8 0  4.8 1.8 0  5 1.8 0  5.2 1.8 0  5.4 1.8 0  5.6 1.8 0  5.8 1.8 0  6 1.8 0  6.2 1.8 0  6.4 1.8 0  6.6 1.8 0  6.8 1.8 0  7 1.8 0  7.2 1.8 0  7.4 1.8 0  7.6 1.8 0  7.8 1.8 0  8 1.8 0  8.199999999999999 1.8 0  8.4 1.8 0  8.6 1.8 0  8.800000000000001 1.8 0  9 1.8 0  9.199999999999999 1.8 0  9.4 1.8 0  9.6 1.8 0  9.800000000000001 1.8 0  10 1.8 0  0 2 0  0.2 2 0  0.4 2 0  0.6 2 0  0.8 2 0  1 2 0  1.2 2 0  1.4 2 0  1.6 2 0  1.8 2 0  2 2 0  2.2 2 0  2.4 2 0  2.6 2 0  2.8 2 0  3 2 0  3.2 2 0  3.4 2 0  3.6 2 0  3.8 2 0  4 2 0  4.2 2 0  4.4 2 0  4.6 2 0  4.8 2 0  5 2 0  5.2 2 0  5.4 2 0  5.6 2 0  5.8 2 0  6 2 0  6.2 2 0  6.4 2 0  6.6 2 0  6.8 2 0  7 2 0  7.2 2 0  7.4 2 0  7.6 2 0  7.8 2 0  8 2 0  8.199999999999999 2 0  8.4 2 0  8.6 2 0  8.800000000000001 2 0  9 2 0  9.199999999999999 2 0  9.4 2 0  9.6 2 0  9.800000000000001 2 0  10 2 0  0 2.2 0  0.2 2.2 0  0.4 2.2 0  0.6 2.2 0  0.8 2.2 0  1 2.2 0  1.2 2.2 0  1.4 2.2 0  1.6 2.2 0  1.8 2.2 0  2 2.2 0  2.2 2.2 0  2.4 2.2 0  2.6 2.2 0  2.8 2.2 0  3 2.2 0  3.2 2.2 0  3.4 2.2 0  3.6 2.2 0  3.8 2.2 0  4 2.2 0  4.2 2.2 0  4.4 2.2 0  4.6 2.2 0  4.8 2.2 0  5 2.2 0  5.2 2.2 0  5.4 2.2 0  5.6 2.2 0  5.8 2.2 0  6 2.2 0  6.2 2.2 0  6.4 2.2 0  6.6 2.2 0  6.8 2.2 0  7 2.2 0  7.2 2.2 0  7.4 2.2 0  7.6 2.2 0  7.8 2.2 0  8 2.2 0  8.199999999999999 2.2 0  8.4 2.2 0  8.6 2.2 0  8.800000000000001 2.2 0  9 2.2 0  9.199999999999999 2.2 0  9.4 2.2 0  9.6 2.2 0  9.800000000000001 2.2 0  10 2.2 0  0 2.4 0  0.2 2.4 0  0.4 2.4 0  0.6 2.4 0  0.8 2.4 0  1 2.4 0  1.2 2.4 0  1.4 2.4 0  1.6 2.4 0  1.8 2.4 0  2 2.4 0  2.2 2.4 0  2.4 2.4 0  2.6 2.4 0  2.8 2.4 0  3 2.4 0  3.2 2.4 0  3.4 2.4 0  3.6 2.4 0  3.8 2.4 0  4 2.4 0  4.2 2.4 0  4.4 2.4 0  4.6 2.4 0  4.8 2.4 0  5 2.4 0  5.2 2.4 0  5.4 2.4 0  5.6 2.4 0  5.8 2.4 0  6 2.4 0  6.2 2.4 0  6.4 2.4 0  6.6 2.4 0  6.8 2.4 0  7 2.4 0  7.2 2.4 0  7.4 2.4 0  7.6 2.4 0  7.8 2.4 0  8 2.4 0  8.199999999999999 2.4 0  8.4 2.4 0  8.6 2.4 0  8.800000000000001 2.4 0  9 2.4 0  9.199999999999999 2.4 0  9.4 2.4 0  9.6 2.4 0  9.800000000000001 2.4 0  10 2.4 0  0 2.6 0  0.2 2.6 0  0.4 2.6 0  0.6 2.6 0  0.8 2.6 0  1 2.6 0  1.2 2.6 0  1.4 2.6 0  1.6 2.6 0  1.8 2.6 0  2 2.6 0  2.2 2.6 0  2.4 2.6 0  2.6 2.6 0  2.8 2.6 0  3 2.6 0  3.2 2.6 0  3.4 2.6 0  3.6 2.6 0  3.8 2.6 0  4 2.6 0  4.2 2.6 0  4.4 2.6 0  4.6 2.6 0  4.8 2.6 0  5 2.6 0  5.2 2.6 0  5.4 2.6 0  5.6 2.6 0  5.8 2.6 0  6 2.6 0  6.2 2.6 0  6.4 2.6 0  6.6 2.6 0  6.8 2.6 0  7 2.6 0  7.2 2.6 0  7.4 2.6 0  7.6 2.6 0  7.8 2.6 0  8 2.6 0  8.199999999999999 2.6 0  8.4 2.6 0  8.6 2.6 0  8.800000000000001 2.6 0  9 2.6 0  9.199999999999999 2.6 0  9.4 2.6 0  9.6 2.6 0  9.800000000000001 2.6 0  10 2.6 0  0 2.8 0  0.2 2.8 0  0.4 2.8 0  0.6 2.8 0  0.8 2.8 0  1 2.8 0  1.2 2.8 0  1.4 2.8 0  1.6 2.8 0  1.8 2.8 0  2 2.8 0  2.2 2.8 0  2.4 2.8 0  2.6 2.8 0  2.8 2.8 0  3 2.8 0  3.2 2.8 0  3.4 2.8 0  3.6 2.8 0  3.8 2.8 0  4 2.8 0  4.2 2.8 0  4.4 2.8 0  4.6 2.8 0  4.8 2.8 0  5 2.8 0  5.2 2.8 0  5.4 2.8 0  5.6 2.8 0  5.8 2.8 0  6 2.8 0  6.2 2.8 0  6.4 2.8 0  6.6 2.8 0  6.8 2.8 0  7 2.8 0  7.2 2.8 0  7.4 2.8 0  7.6 2.8 0  7.8 2.8 0  8 2.8 0  8.199999999999999 2.8 0  8.4 2.8 0  8.6 2.8 0  8.800000000000001 2.8 0  9 2.8 0  9.199999999999999 2.8 0  9.4 2.8 0  9.6 2.8 0  9.800000000000001 2.8 0  10 2.8 0  0 3 0  0.2 3 0  0.4 3 0  0.6 3 0  0.8 3 0  1 3 0  1.2 3 0  1.4 3 0  1.6 3 0  1.8 3 0  2 3 0  2.2 3 0  2.4 3 0  2.6 3 0  2.8 3 0  3 3 0  3.2 3 0  3.4 3 0  3.6 3 0  3.8 3 0  4 3 0  4.2 3 0  4.4 3 0  4.6 3 0  4.8 3 0  5 3 0  5.2 3 0  5.4 3 0  5.6 3 0  5.8 3 0  6 3 0  6.2 3 0  6.4 3 0  6.6 3 0  6.8 3 0  7 3 0  7.2 3 0  7.4 3 0  7.6 3 0  7.8 3 0  8 3 0  8.199999999999999 3 0  8.4 3 0  8.6 3 0  8.800000000000001 3 0  9 3 0  9.199999999999999 3 0  9.4 3 0  9.6 3 0  9.800000000000001 3 0  10 3 0  0 3.2 0  0.2 3.2 0  0.4 3.2 0  0.6 3.2 0  0.8 3.2 0  1 3.2 0  1.2 3.2 0  1.4 3.2 0  1.6 3.2 0  1.8 3.2 0  2 3.2 0  2.2 3.2 0  2.4 3.2 0  2.6 3.2 0  2.8 3.2 0  3 3.2 0  3.2 3.2 0  3.4 3.2 0  3.6 3.2 0  3.8 3.2 0  4 3.2 0  4.2 3.2 0  4.4 3.2 0  4.6 3.2 0  4.8 3.2 0  5 3.2 0  5.2 3.2 0  5.4 3.2 0  5.6 3.2 0  5.8 3.2 0  6 3.2 0  6.2 3.2 0  6.4 3.2 0  6.6 3.2 0  6.8 3.2 0  7 3.2 0  7.2 3.2 0  7.4 3.2 0  7.6 3.2 0  7.8 3.2 0  8 3.2 0  8.199999999999999 3.2 0  8.4 3.2 0  8.6 3.2 0  8.800000000000001 3.2 0  9 3.2 0  9.199999999999999 3.2 0  9.4 3.2 0  9.6 3.2 0  9.800000000000001 3.2 0  10 3.2 0  0 3.4 0  0.2 3.4 0  0.4 3.4 0  0.6 3.4 0  0.8 3.4 0  1 
[...]
<PointData  Scalars="f_8"> 
<DataArray  type="Float64"  Name="f_8"  format="ascii">-4.2976145911515939e-02  -2.0879549670212962e-02  -1.0986334709885779e-02  -7.5469142025203937e-03  -4.6645593725434054e-03  -2.4770845329955323e-03  -5.9496004815287975e-04  1.1247928784547667e-03  2.7870498713673058e-03  4.4634588208858151e-03  6.1806530606062626e-03  8.0005887606308772e-03  1.0562130277151336e-02  1.8341861204144359e-02  4.0554520683373570e-02  3.7341528631026806e-02  4.3197372758884217e-02  4.6965676851001394e-03  6.7082174571030939e-03  5.6306467378821317e-03  4.9276604254784358e-03  4.4103337693704369e-03  4.0282198629104492e-03  3.7265299437247903e-03  3.4574128934037485e-03  3.1803961466859510e-03  2.8620257509033107e-03  2.4743458889481653e-03  1.9917651703350997e-03  1.3864853080834002e-03  6.2368070675812679e-04  -3.3207289829317047e-04  -1.6599555315745147e-03  1.0078052101469370e-04  -3.8754539773143720e-02  -3.3551636086628173e-02  -3.7701533636026761e-02  -1.5621388410671106e-02  -8.0962067915822077e-03  -5.8100542958173153e-03  -4.2466186807650292e-03  -2.7664914370966352e-03  -1.3098294796112830e-03  1.4905894374369889e-04  1.6819138725295973e-03  3.3936303649709418e-03  5.4269768867893971e-03  8.1706956203119775e-03  1.1487115521799936e-02  2.1275481492040820e-02  4.3191937986862640e-02  -3.4757826062008496e-01  -2.2042048210024887e-01  -1.4864770625575505e-01  -1.0446135384450390e-01  -7.4233159535256166e-02  -5.1996253282065918e-02  -3.4682788877368899e-02  -2.0478568173304249e-02  -8.1921641946290785e-03  3.0320877715646240e-03  1.3850951791434436e-02  2.4786264253097164e-02  3.5826833751426139e-02  4.4717050775273354e-02  4.8261302984599186e-02  3.4086095935965122e-02  1.5632539830172983e-02  6.9370936394809318e-03  5.7529189463466548e-03  4.9461083580176765e-03  4.2892871433088875e-03  3.7047707007725676e-03  3.0895659301511677e-03  2.3992081404111201e-03  1.6296439925859584e-03  8.0973927504225261e-04  -1.4265202510345049e-05  -7.9888235617226269e-04  -1.5220949242252492e-03  -2.1954303103987323e-03  -2.8676290460434525e-03  -3.6406153887577936e-03  -4.5800235613132310e-03  -5.9171898136698778e-03  -1.4857415404075605e-02  -3.4987031907731524e-02  -5.0756547131009730e-02  -4.7534949846272712e-02  -3.8491527995968638e-02  -2.7187472236919610e-02  -1.6005786163111553e-02  -4.9885120710935153e-03  6.3798999797908965e-03  1.8759338727382936e-02  3.3013474120357621e-02  5.0343379149319412e-02  7.2572723469170319e-02  1.0277768725657922e-01  1.4693204587780137e-01  2.1866437626616453e-01  3.4583511042626675e-01  -5.2304030128199253e-01  -3.6571818685681090e-01  -2.6209598660037803e-01  -1.8967059566982630e-01  -1.3746137815349019e-01  -9.7921959243452039e-02  -6.6600151224014401e-02  -4.0556205171433934e-02  -1.7728435650793441e-02  3.4297027134763593e-03  2.4099835654757543e-02  4.5041751092239471e-02  6.6237235020975643e-02  8.5281433566926815e-02  9.1417716430756399e-02  6.5853725491624951e-02  3.0549962147205914e-02  1.4083686127341464e-02  8.4439566792452875e-03  6.4590920996145940e-03  4.8683775037935851e-03  3.5940730880665000e-03  2.3855111903651996e-03  1.1179275062978117e-03  -2.4307250239258404e-04  -1.6608646714973789e-03  -3.0615821854130046e-03  -4.3767889608052534e-03  -5.5842277892173657e-03  -6.7364461320109856e-03  -7.9733446090181868e-03  -9.5508239166178770e-03  -1.1536014310810465e-02  -1.7284957005977947e-02  -3.4491215458183254e-02  -7.2035838259192631e-02  -9.9586634418449893e-02  -9.3591788049820546e-02  -7.3883404946913547e-02  -5.1901042063432989e-02  -3.0235263011374216e-02  -8.9588179285492644e-03  1.2677000614593653e-02  3.5862972725747205e-02  6.2163760171997880e-02  9.3662038658078442e-02  1.3331786313180874e-01  1.8560101673137197e-01  2.5807112195714632e-01  3.6171987210920004e-01  5.1911839724257758e-01  -6.4795354787926884e-01  -4.8266973978212513e-01  -3.5963447511462832e-01  -2.6820424553615585e-01  -1.9888475266911321e-01  -1.4485648643555532e-01  -1.0124535714048302e-01  -6.4555193447614151e-02  -3.2172627242150920e-02  -2.0633237885121993e-03  2.7352281994984365e-02  5.7089342553071055e-02  8.7138288222640789e-02  1.1488367972768775e-01  1.2708132458853341e-01  9.8258342720300207e-02  4.6803491960645337e-02  1.9252715347555037e-02  1.1252422135761579e-02  7.6623036028746032e-03  4.7747995285346628e-03  2.5854458638948702e-03  6.7408251832242058e-04  -1.1966651706239936e-03  -3.1184792581077977e-03  -5.0714689914542737e-03  -6.9777105349210179e-03  -8.7673606775543669e-03  -1.0443328447570894e-02  -1.2130210272519966e-02  -1.4101236302310012e-02  -1.6804089458716333e-02  -2.0237641977425121e-02  -2.8089688763720897e-02  -5.6678627348975691e-02  -1.1076448783346290e-01  -1.4135130588757222e-01  -1.2879281374433560e-01  -9.9762658693795428e-02  -6.8348972553001736e-02  -3.7398701384408609e-02  -6.9814976170393455e-03  2.3914485390749397e-02  5.6890607160820228e-02  9.4013511445550799e-02  1.3793155297832582e-01  1.9217387546352518e-01  2.6164232320455932e-01  3.5317654300350354e-01  4.7628348698846540e-01  6.4170001712783897e-01  -7.4677619247120564e-01  -5.7636801980240193e-01  -4.4301833273029106e-01  -3.3883304196127217e-01  -2.5692608359120023e-01  -1.9133275497470473e-01  -1.3737707195033311e-01  -9.1414994802764507e-02  -5.0566885556101032e-02  -1.2507396369295381e-02  2.4607140511931448e-02  6.1979388353200188e-02  9.9690595685288305e-02  1.3505842433294243e-01  1.5427553980596823e-01  1.3018736229953623e-01  7.1759516672667042e-02  3.0874802837377383e-02  1.4722327750502409e-02  8.2551535393618914e-03  3.6118182513422458e-03  2.6709221638375106e-04  -2.4421752483577094e-03  -4.9186247999902632e-03  -7.3411502504444615e-03  -9.7311914167840744e-03  -1.2031329218596967e-02  -1.4195910812423169e-02  -1.6281426154904251e-02  -1.8522360203241741e-02  -2.1391345098922390e-02  -2.5621034568393701e-02  -3.1816076736543915e-02  -4.8277589383333902e-02  -9.0376058820892766e-02  -1.5005758262403143e-01  -1.7497325914559317e-01  -1.5460704986474161e-01  -1.1724202416070049e-01  -7.7565777479540909e-02  -3.8502165217134107e-02  -2.0400162465531748e-05  3.9094991232358531e-02  8.0727751165420553e-02  1.2725367329299705e-01  1.8160435111258366e-01  2.4747177292851233e-01  3.2957169396640612e-01  4.3389640170543747e-01  5.6734700886299405e-01  7.3794853256955617e-01  -8.3084798562409357e-01  -6.5770133729283753e-01  -5.1755289608458555e-01  -4.0459566294056071e-01  -3.1325629603089344e-01  -2.3842791078593201e-01  -1.7579905899385428e-01  -1.2181240124357395e-01  -7.3532295655636001e-02  -2.8515781841050913e-02  1.5215242657589032e-02  5.8984483185385614e-02  1.0299393307389365e-01  1.4489980860365961e-01  1.7226672183929745e-01  1.5829981931868345e-01  1.0456589237749517e-01  5.0359874458216998e-02  1.8105001699290631e-02  7.9167637364223522e-03  1.2187838181265582e-03  -3.5080406526561934e-03  -7.1223583924416734e-03  -1.0223155644033541e-02  -1.3101305630712937e-02  -1.5840291413045857e-02  -1.8425958081218996e-02  -2.0862135001822275e-02  -2.3287409469429046e-02  -2.6082113360270137e-02  -2.9964594831843952e-02  -3.5880109848838111e-02  -4.5659885350649583e-02  -7.9750075933324199e-02  -1.3314982670604369e-01  -1.8624303338771500e-01  -1.9950960714959021e-01  -1.6996333097637134e-01  -1.2532386958625405e-01  -7.8777828182987980e-02  -3.2883485375025827e-02  1.2526741926482798e-02  5.8809456529197481e-02  1.0800425331285328e-01  1.6262559219185937e-01  2.2568083393004598e-01  3.0079284983703558e-01  3.9232711359032257e-01  5.0542750906944200e-01  6.4568643296958583e-01  8.1908875674312509e-01  -9.0778104573954799e-01  -7.3285352046464047e-01  -5.8804306096907288e-01  -4.6865605877253408e-01  -3.7000139367258089e-01  -2.8761681070562367e-01  -2.1758280318291789e-01  -1.5654831901058200e-01  -1.0166995293710147e-01  -5.0535518578728268e-02  -1.1631826044259535e-03  4.7807913814000902e-02  9.6680828662599652e-02  1.4368560003950592e-01  1.7938826044710418e-01  1.7986969658165755e-01  1.3835667164897297e-01  8.2185962843160307e-02  3.1217047136300316e-02  6.8423387074315447e-03  -2.0373393054029152e-03  -8.4277586089992491e-03  -1.3188032192909231e-02  -1.7069891921448047e-02  -2.0492349530354372e-02  -2.3616579479742165e-02  -2.6491444006296643e-02  -2.9195563974237976e-02  -3.1979145761151274e-02  -3.5392907822634691e-02  -4.0344970529178188e-02  -4.8246692614493353e-02  -7.6483920534566721e-02  -1.2475787601567201e-01  -1.7725757270532763e-01  -2.1612861209199299e-01  -2.1305075770693443e-01  -1.7400997251427600e-01  -1.2356046424348988e-01  -7.1642872484141612e-02  -2.0187583598901798e-02  3.1096445977003378e-02  8.3625536464369585e-02  1.3946639533234181e-01  2.0112623476545152e-01  2.7154270957391408e-01  3.5415281478876831e-01  4.5294716822536929e-01  5.7243713586881317e-01  7.1734017848646081e-01  8.9258768068285943e-01  -9.8337188320442193e-01  -8.0727141668050950e-01  -6.5894960511708922e-01  -5.3450271776822400e-01  -4.2981944731256932e-01  -3.4093030101098865e-01  -2.6428786406541743e-01  -1.9680837667539230e-01  -1.3584349722352018e-01  -7.9133485143265653e-02  -2.4815527304374856e-02  2.8412034477165272e-02  8.0901148111548818e-02  1.3138851852113279e-01  1.7379709819054248e-01  1.9002660070708013e-01  1.6564869158939288e-01  1.1579641483603842e-01  6.3818156693843553e-02  1.8015704720435961e-02  -4.5578786092600266e-03  -1.3438641964853329e-02  -1.9950396137636103e-02  -2.5145269791989930e-02  -2.9552798850030496e-02  -3.3430637429383028e-02  -3.6913802866815802e-02  -4.0188053478818507e-02  -4.3651589478784426e-02  -4.8093115082027044e-02  -5.6356632302340753e-02  -8.3243155710491734e-02  -1.2420280397365679e-01  -1.7033691618171976e-01  -2.1469814511278965e-01  -2.3422456936390557e-01  -2.1348490489212321e-01  -1.6663042780937237e-01  -1.1204811765838076e-01  -5.6088821690112832e-02  -1.1476130383382726e-04  5.6244073609302808e-02  1.1437043045518769e-01  1.7623814223028458e-01  2.4422877031109161e-01  3.2111081134345854e-01  4.1007767772252984e-01  5.1476843009557915e-01  6.3921789789506456e-01  7.8757534524107242e-01  9.6406326553059818e-01  -1.0627156661094095e+00  -8.8583721785096869e-01  -7.3460387308395203e-01  -6.0579509546011834e-01  -4.9571973176086098e-01  -4.0081120809353965e-01  -3.1787346301982095e-01  -2.4412170424262195e-01  -1.7717104697608163e-01  -1.1500819531680752e-01  -5.5996973672421325e-02  1.0018294643436470e-03  5.6316378718710911e-02  1.0898698637675169e-01  1.5537253609656421e-01  1.8430625192697250e-01  1.8003820666496934e-01  1.4433888841211406e-01  9.6569171885689115e-02  5.0637366287279016e-02  9.9802175839431347e-03  -1.4646364538072569e-02  -2.5717179248540455e-02  -3.3666545972206426e-02  -4.0247261888935432e-02  -4.5944732232728637e-02  -5.1063986176654377e-02  -5.6040597663176255e-02  -6.1999627128300185e-02  -7.3684141975746409e-02  -9.9827261255253291e-02  -1.3343130662062258e-01  -1.7114325005642050e-01  -2.1065611739358464e-01  -2.3833204560876417e-01  -2.3550090637277937e-01  -2.0049199662934233e-01  -1.4873095865308691e-01  -9.1403098182928091e-02  -3.2290377369635380e-02  2.7603006473953196e-02  8.8657365218471298e-02  1.5212272233351321e-01  2.1977765952268857e-01  2.9378963735246755e-01  3.7669449062142174e-01  4.7141450575519189e-01  5.8126224952452399e-01  7.0989201122383250e-01  8.6105153064958240e-01  1.0383945800780929e+00  -1.1507946928716668e+00  -9.7340074545678834e-01  -8.1948340416025067e-01  -6.8647951119558415e-01  -5.7108975134187900e-01  -4.7011723445352038e-01  -3.8070760644618062e-01  -3.0038605827543546e-01  -2.2706785842153895e-01  -1.5905071025469966e-01  -9.5009068296340343e-02  -3.4057297324629865e-02  2.4036711060655948e-02  7.8492063518986521e-02  1.2697088097933992e-01  1.6357363789219809e-01  1.7708147070068334e-01  1.6102088194008632e-01  1.2410719534956641e-01  8.0889811298927985e-02  3.9177045461594902e-02  1.8535431616671359e-03  -2.5046096626910520e-02  -4.0725207804363610e-02  -5.2324110175570995e-02  -6.2295361200385882e-02  -7.1713375501681970e-02  -8.2390111136074279e-02  -9.8611306617629263e-02  -1.2286013430911946e-01  -1.5123424330596175e-01  -1.8192232187846016e-01  -2.1336278054241767e-01  -2.3824398848283657e-01  -2.4336050672663759e-01  -2.2089886193189476e-01  -1.7699022855573834e-01  -1.2230822324613604e-01  -6.2699052869764585e-02  -5.7443341762305946e-04  6.3292893441277712e-02  1.2922623632483787e-01  1.9825999939763211e-01  2.7190360497935151e-01  3.5205603683751330e-01  4.4099148919419384e-01  5.4135487487904077e-01  6.5614683392537321e-01  7.8868046459448371e-01  9.4236098446049454e-01  1.1203008419320457e+00  -1.2528791931966978e+00  -1.0750916728817845e+00  -9.1850854001791260e-01  -7.8096634446766500e-01  -6.5979598798306383e-01  -5.5217961375002322e-01  -4.5561075769441561e-01  -3.6791295352590880e-01  -2.8730380610958817e-01  -2.1242935748264552e-01  -1.4233689213850415e-01  -7.6462577688664476e-02  -1.4731279203682033e-02  4.2208719065807795e-02  9.2712872651937214e-02  1.3364177195827404e-01  1.5900035219200298e-01  1.6169420740644089e-01  1.4121035021941328e-01  1.0570673724822115e-01  6.4901913389843788e-02  2.4576001394585743e-02  -1.2483462048396909e-02  -4.2572938494251714e-02  -6.5069024590295205e-02  -8.4082640383073171e-02  -1.0289967274738353e-01  -1.2432604611016625e-01  -1.4891433753405109e-01  -1.7493930758506762e-01  -2.0119848066337584e-01  -2.2599804261613271e-01  -2.4452777107089668e-01  -2.4893228080733087e-01  -2.3279532376970097e-01  -1.9681720052927329e-01  -1.4726609971299792e-01  -8.9655938154957315e-02  -2.7075968590749514e-02  3.8834462624433526e-02  1.0750167384568723e-01  1.7914470013661310e-01  2.5452838864144889e-01  3.3484623062677760e-01  4.2170663389474183e-01  5.1713131387392952e-01  6.2350731124988545e-01  7.4352590401397578e-01  8.8015390089995660e-01  1.0363007694502493e+00  1.2147506462892839e+00  -1.3743972343260162e+00  -1.1981390336468942e+00  -1.0385099832453080e+00  -8.9538356801286023e-01  -7.6713520552978232e-01  -6.5143100548509991e-01  -5.4619806426106787e-01  -4.4957599939926485e-01  -3.6006541354705768e-01  -2.7665050818121600e-01  -1.9877144196338870e-01  -1.2622495836954264e-01  -5.9142739264820637e-02  1.8978709807447351e-03  5.5705075564816194e-02  1.0035967886079006e-01  1.3287412267283677e-01  1.4878955420602766e-01  1.4443774615659252e-01  1.2098633691824820e-01  8.4581686310937806e-02  4.2422633020226495e-02  -5.6781942377809964e-04  -4.1598576308926383e-02  -7.8471444394881892e-02  -1.1132520117105107e-01  -1.4224778954008419e-01  -1.7207358477843118e-01  -2.0019759578885973e-01  -2.2575106186444266e-01  -2.4705821290817154e-01  -2.6060569794223587e-01  -2.6159180273384014e-01  -2.4628775189098370e-01  -2.1446557432310392e-01  -1.6923564787832371e-01  -1.1430764541208285e-01  -5.2358115045646650e-02  1.4807411192689527e-02  8.6115314865049114e-02  1.6115172127995525e-01  2.3999803949053516e-01  3.2311630077820236e-01  4.1136078063846782e-01  5.0606330415686884e-01  6.0903774789168519e-01  7.2243536463931368e-01  8.4859106177923127e-01  9.9006174119238211e-01  1.1488173256764540e+00  1.3270969789795790e+00  -1.5173486676037615e+00  -1.3571359086269119e+00  -1.1920902210456268e+00  -1.0407192251302306e+00  -9.0222743720727738e-01  -7.7515820137811986e-01  -6.5804396727312031e-01  -5.4941590188262612e-01  -4.4814461633247410e-01  -3.5356435790508989e-01  -2.6541213168464606e-01  -1.8375552977213444e-01  -1.0892244812016494e-01  -4.1495444435112008e-02  1.7606663169130298e-02  6.7054662168539406e-02  1.0507606663895622e-01  1.2922042213286555e-01  1.3640834520218745e-01  1.2466060091812339e-01  9.5428446924281415e-02  5.3626205820031622e-02  5.1438890655140781e-03  -4.5476178121893356e-02  -9.5172216289175715e-02  -1.4168311463484085e-01  -1.8366531961303428e-01  -2.2026869124746626e-01  -2.5057288601548733e-01  -2.7307076828465654e-01  -2.8526177684680837e-01  -2.8425927855865052e-01  -2.6825842575749254e-01  -2.3757837022067171e-01  -1.9428954527261325e-01  -1.4085415108242402e-01  -7.9236326232689100e-02  -1.0912288614875622e-02  6.3043978724278540e-02  1.4197588827543298e-01  2.2557474328408350e-01  3.1378998802238833e-01  4.0683041353567029e-01  5.0527776097760124e-01  6.1021629417447520e-01  7.2323581759485855e-01  8.4617325681500155e-01  9.8083101912330151e-01  1.1290761831591249e+00  1.2919211881869062e+00  1.4612698110100657e+00  -1.6598999818311002e+00  -1.5516967784120799e+00  -1.3787910318798318e+00  -1.2164304450289949e+00  -1.0650650903855172e+00  -9.2466327428887030e-01  -7.9393342818246482e-01  -6.7085459319127838e-01  -5.5449188721133347e-01  -4.4518797568212526e-01  -3.4348769711356042e-01  -2.4971123286100338e-01  -1.6424017419287429e-01  -8.7664994639472180e-02  -2.0795434513309757e-02  3.5310230695485313e-02  7.9319265958915114e-02  1.0957739340077702e-01  1.2397476284466358e-01  1.2025401780978631e-01  9.7427606347871509e-02  5.7345380015913001e-02  4.6126370731373297e-03  -5.5091546495967272e-02  -1.1646345157565720e-01  -1.7489496836794616e-01  -2.2657289989563018e-01  -2.6864397514588984e-01  -2.9887451849937968e-01  -3.1523050674736108e-01  -3.1608662603473414e-01  -3.0096057301574780e-01  -2.7091369837041124e-01  -2.2804903917859939e-01  -1.7454939194967689e-01  -1.1210583162051137e-01  -4.1933137356227654e-02  3.5086632989035013e-02  1.1835471040412807e-01  2.0750709160601721e-01  3.0235481487259086e-01  4.0286394068877646e-01  5.0912397761183914e-01  6.2125686808670766e-01  7.3970590033815675e-01  8.6586727021914467e-01  1.0016816194854734e+00  1.1486221236638743e+00  1.3072489315053923e+00  1.4776661297096598e+00  1.6071744033941846e+00  -1.7160014376492743e+00  -1.6750939707565875e+00  -1.5082471836026667e+00  -1.3481389270206066e+00  -1.1975071544544493e+00  -1.0578150488080595e+00  -9.2745852045895949e-01  -8.0113543151608835e-01  -6.7525723732444365e-01  -5.5139699934130659e-01  -4.3361626606985948e-01  -3.2459587228225378e-01  -2.2537463071991076e-01  -1.3660404615657501e-01  -5.9101190179870089e-02  6.1048674115833134e-03  5.7769991369187111e-02  9.4400957688234713e-02  1.1421524984096366e-01  1.1521983222148791e-01  9.5834960356500923e-02  5.6215900829515456e-02  -6.3904793456817709e-04  -6.9040470158133568e-02  -1.4180850757874003e-01  -2.1160442147412650e-01  -2.7193011099125824e-01  -3.1776391974079216e-01  -3.4580765123788809e-01  -3.5452096678297768e-01  -3.4414003732655840e-01  -3.1646157150553822e-01  -2.7414494755214586e-01  -2.1980705457292155e-01  -1.5545772800234117e-01  -8.2439118020833049e-02  -1.5977125236177352e-03  8.6552959440581709e-02  1.8172423409657859e-01  2.8379708492605965e-01  3.9277523882100479e-01  5.0846505688362009e-01  6.2962097365761571e-01  7.5388831335108319e-01  8.8047390771326861e-01  1.0124299136545831e+00  1.1541317260192654e+00  1.3075601340751388e+00  1.4712310320255426e+00  1.6418330703438535e+00  1.7003114987337464e+00  -1.6691548482706933e+00  -1.6152678857399698e+00  -1.4705205095829466e+00  -1.3366731093317550e+00  -1.2134334657120114e+00  -1.1002284126522726e+00  -9.9661925819607966e-01  -8.9546135137469585e-01  -7.8493252665603630e-01  -6.6156133631853942e-01  -5.3263513766800719e-01  -4.0770733162697148e-01  -2.9219934486509297e-01  -1.8821847879976400e-01  -9.6981222722548707e-02  -1.9737342678035726e-02  4.2103852152799208e-02  8.6905227146234346e-02  1.1273651653249864e-01  1.1746654856567051e-01  9.9234473725913055e-02  5.7502091558753979e-02  -5.5710869325945600e-03  -8.4297897058983440e-02  -1.6990026315062895e-01  -2.5213429133923626e-01  -3.2138763358452160e-01  -3.7046005811685206e-01  -3.9554181742286471e-01  -3.9623145721701175e-01  -3.7475585493026703e-01  -3.3471469773871293e-01  -2.7981175576773082e-01  -2.1301672797848131e-01  -1.3630868409836044e-01  -5.0821349733030451e-02  4.2868195180417804e-02  1.4448152874866782e-01  2.5390440227063482e-01  3.7109860405736744e-01  4.9549354031842624e-01  6.2410578748126377e-01  7.5016608826705133e-01  8.6728538328474403e-01  9.7722682100616132e-01  1.089165555223266