<?xml version="1.0"?>
<VTKFile type="UnstructuredGrid"  version="0.1"  >
<UnstructuredGrid>
<Piece  NumberOfPoints="1535" NumberOfCells="2912">
<Points>
<DataArray  type="Float64"  NumberOfComponents="3"  format="ascii">0 3 0  -0 0.9986823165770746 0  0.02963332782255967 0.9995608365087943 0  0.1476465640024813 0.9890401873221639 0  0.2635871660690678 0.9646355819083586 0  0.3758275821142382 0.9266896074318334 0  0.4827922027307449 0.8757349421956369 0  0.5829794791144721 0.8124868780056813 0  0.6749830015182106 0.7378332790417272 0  0.7575112421616201 0.6528221181905216 0  0.8294056854502018 0.5586467658036525 0  0.8896570909947473 0.4566292373937131 0  0.9374196611341209 0.3482016354343987 0  0.9720229140804107 0.2348860457809837 0  0.9929810960135169 0.1182731709213658 0  1 0 0  3 0 0  3 3 0  0 1.999341158288537 0  0 1.499011737432806 0  3 1.5 0  1.5 3 0  1.67214634576285 1.623307982532476 0  2 0 0  3 2.25 0  0.9301428667278155 2.229634190289136 0  3 0.75 0  2.25 3 0  1.671017948394228 0.778318383309306 0  2.343197887912703 1.125 0  0.75 3 0  1.875 2.347782404048649 0  0.9329623607700952 1.477846936364138 0  2.372086403143078 1.837087918407442 0  2.5 0 0  0 2.499670579144269 0  2.214582574067691 0.5493872079386377 0  2.446912934751428 2.407188310265687 0  0.4723963822890018 1.749176447860672 0  1.371304150465816 1.201214173538461 0  1.5 0 0  0.4316424296245612 2.249505868716403 0  1.376748370758979 2.495220982623996 0  1.242666494788637 1.854907361153392 0  0.375 3 0  3 0.375 0  1.234405970596216 0.7290383907571192 0  1.825289214323161 0.3848394715473672 0  1.818670813989772 1.200616761018362 0  2.128153914578699 1.490354009386561 0  0.4512480950805829 1.334746956169702 0  0.6944940789218622 2.580775187223337 0  3 2.625 0  2.625 3 0  2.629562440900102 0.5625 0  0.9757092929232161 1.059975831342672 0  1.125 3 0  1.614341887496144 2.030130132592745 0  1.978104281429623 1.874298596726108 0  1.431379162316172 0.3878990470599737 0  2.041635498891291 0.8902059627128367 0  2.58053178537211 1.472001605599783 0  3 1.125 0  1.875 3 0  2.13446611456129 2.632513457651882 0  0.8600286887046513 1.85347232084249 0  2.655601242212344 2.089836913681779 0  3 1.875 0  2.202822479711402 2.149264805449113 0  1.6875 2.686781571168706 0  0.3357436484230645 2.638725756849535 0  1.037957640028725 2.556629890305984 0  2.671598943956352 0.938043498685676 0  1.347944741488864 1.53612100679784 0  1.258488581156695 2.185789415706086 0  2.703682723749573 0.2492563683339029 0  2.683685988214447 1.772946231491402 0  2.25 0 0  2.394526420520056 0.294037985855741 0  2.664867793668702 2.664867793668702 0  2.383466298709816 0.8138270562554137 0  0.73944771520217 1.246928989237948 0  0.6746370993781391 2.082643485951753 0  2.100042649542254 0.2775936987493027 0  2.735045181695704 2.369370520642553 0  1.247203625890815 2.745779873676876 0  1.91308821227239 0.6462448435574623 0  2.727206482007905 1.222272284009813 0  0.2746341457312942 1.551513887926533 0  0.2956943256712549 1.986607817700001 0  0.6547284009491582 1.532117723713366 0  2.4375 2.807757271781158 0  0 1.24884702700494 0  2.079472143654098 1.152665558934858 0  0.9375 2.80658084762571 0  0.5456388419692412 2.798688310325317 0  0 1.749176447860672 0  1.593715900553642 2.312826487953175 0  1.25 0 0  1.118141293691202 1.285668180610516 0  1.594775183952346 1.041937930042698 0  1.562987446312639 1.382851951381029 0  1.627061359358754 0.2224968135596697 0  0 2.749835289572134 0  0 2.249505868716403 0  2.75 0 0  1.75 0 0  0.2348646602679898 2.407446411845275 0  0.7017802689505485 2.331023109343267 0  1.184899043362521 0.3618333667829486 0  1.224469726101306 0.9878525845190969 0  2.121045499999779 2.384156198632957 0  1.070446824359503 2.028961861626949 0  1.051941457841396 1.69584194102786 0  1.463927921395494 1.75120119880193 0  1.960077179330841 2.118340802874918 0  0.9860740462718289 0.7527791805525212 0  1.431340757593662 0.866196827088741 0  1.451668251357872 0.6270495677202197 0  1.921772176009717 1.630990619192592 0  3 2.8125 0  1.817320620019427 0.9634663854569983 0  0.7707474161905536 0.9498735246153404 0  0.2531314148377795 1.202568455446412 0  0.5403293313900648 1.110278884299034 0  2.436208413577024 2.172857317873999 0  2.358650853042983 1.587367998038495 0  2.319852331011421 1.357222468689377 0  0.1875 3 0  1.922990234737574 2.758541710411929 0  1.786729178726997 1.426286016235616 0  1.629151196685587 0.4915563372443559 0  1.474846465304932 2.772212302126301 0  1.084692033007292 0.5569022053730387 0  0.2533187503225479 1.770602293882556 0  1.113381221700188 2.350489922894498 0  2.51347678591121 1.259403018252597 0  1.375 0.177906186802477 0  0.2110952947253646 2.18919511767162 0  2.162768146302908 1.725174410617991 0  2.18403612598811 1.937102416186147 0  0.4927017000434998 2.470974146724577 0  1.907593664165626 0.1901266907913592 0  2.784646561285272 1.570188877172858 0  2.8125 3 0  1.142248254931614 1.494203493901094 0  2.774194939641243 0.7364349749107099 0  3 0.5625 0  2.798787244047799 0.4371512289133255 0  2.423661805595353 0.5056471670577282 0  1.855342006460909 2.558262180360893 0  2.022826688344332 0.4701658594964584 0  1.39506948252197 2.013439086475487 0  1.654699635737344 1.828346746900801 0  1.752747243396111 2.18232904348574 0  2.0625 3 0  2.803362577848525 1.943242546163075 0  0.8586249875276757 2.460581170218981 0  0.647445930916773 1.871073474214655 0  1.978808603485517 1.338378119962522 0  2.352356573423719 2.605361416277877 0  2.576362387558131 0.762669678859544 0  1.810085652311113 1.984574187326211 0  0.7415377674490257 2.804206163707002 0  0.4943772352466155 1.998278323444121 0  0.201039241391987 2.794503693807165 0  0.1644818084355753 1.383166462775771 0  3 1.3125 0  3 0.1875 0  1.578784281394789 2.515308771629734 0  2.15625 2.827569421777996 0  0.8223792082913272 1.651268761154668 0  0.8790668096878452 2.044539089238274 0  2.196956924298198 1.001771645554255 0  2.098136531102444 0.704587160761929 0  0.9267248697649939 1.286530224666978 0  0.4638404959315899 1.525339627363866 0  2.551749155256553 1.920943061005067 0  2.815992591305403 2.195309268723876 0  2.564572971945248 0.3784354881677235 0  3 0.9375 0  2.48068626704954 0.9846001507819173 0  2.821736620749951 1.056224047267045 0  1.292781091553785 0.5200933565037897 0  3 1.6875 0  0.5625 3 0  0.9375 3 0  2.4375 3 0  1.3125 3 0  3 2.4375 0  1.6875 3 0  3 2.0625 0  2.535121916470862 1.65571795332462 0  2.820638386946254 2.545779795495053 0  1.188918758079641 0.1757834365033359 0  2.803764593587195 2.803764593587195 0  0.1652891187377578 2.57543401604569 0  1.493922493958065 2.163444767827148 0  2.577269061573774 2.283823491941161 0  2.305852286754678 2.296222136198525 0  0.8647929030272155 2.641165233867202 0  2.824745313918023 1.384868785949965 0  1.416999009977189 2.322856961283229 0  2.332677859672738 2.03085356187247 0  0.3732096271594475 2.807253177487084 0  1.202657979634282 2.50002314854091 0  2.60941570749957 1.097763271555137 0  1.638224754360742 1.217928282137423 0  2.151322459588518 1.311749353924641 0  0 1.874258803074604 0  1.423206115342339 1.037627150313717 0  1.722698040090286 2.424129689415704 0  1.274003340588443 1.373311374575718 0  0.6357261866538817 1.701265568064394 0  0.136071108994296 1.648614014439278 0  2.604927332458189 2.494550766484071 0  2.608897301914423 2.828146933350543 0  1.768455735206976 2.843390785584353 0  1.217805334367485 1.649084712074256 0  1.518568592759526 1.548021845858855 0  1.066852919981431 0.9092778212846159 0  1.075380154599229 1.861613844645734 0  1.793581428880471 1.736902521818903 0  0.5357705826140549 2.632149705572347 0  1.892312444873626 0.8130393924008511 0  2.855187333320598 1.77962261994308 0  2.253137802307639 0.1809957179053329 0  1.232952281888385 2.025260218013607 0  1.087555365607256 2.190307914025529 0  1.74249310186973 0.6214458783798995 0  2.839773805211895 0.8901140898474195 0  1.931559422978275 1.081395008665759 0  2.625 0 0  2.535644250270564 0.1787219194084131 0  2.862567445488658 0.2868519627059978 0  2.228947388597814 2.502866684327764 0  1.513591393335832 1.90505192417557 0  2.510849242977852 2.623366180629609 0  2.01646165374182 2.5143488900768 0  0.1589240250806743 1.901279825392142 0  1.128361821175623 1.121428293972071 0  1.103547051107344 2.833205859196446 0  2.345190224680656 0.6521234883595038 0  2.213179178516986 0.8313551662682149 0  2.875 0 0  2.295679074601884 0.4154581126067742 0  1.59375 2.874364981296496 0  2.125 0 0  2.012467282595524 2.268261259455909 0  2.375 0 0  1.265318059500196 2.338079225952253 0  2.813185027328609 0.141016258215689 0  0.3760291282142431 1.092003017232218 0  0.8571532831157742 1.152915038400313 0  0.6182854132454885 1.366113925371668 0  0.7800842920289455 1.409418461720981 0  0.6128188397264765 0.9687107161594906 0  0.7077809354299129 1.093415668188193 0  2.778081862124922 0.5861021110384577 0  2.494126589902366 0.6376550827960281 0  0.9177641223706122 0.9220187441783871 0  0.8211939801095562 0.7972093749433792 0  0 1.123764671791007 0  1.927586505321677 1.480258897456966 0  2.255720481161225 2.717716144206423 0  0.4015850695451768 1.880945605095017 0  0.3466640103019687 2.126850029352673 0  2.046436792437712 0.1400886874589463 0  1.964081865999825 0.3348440731027271 0  0.7961303390419705 2.167019629212493 0  0.5368320758864407 2.142326476308966 0  1.373417718231714 2.652267219167682 0  0.1614510075866519 2.049506382685338 0  1.597579551611027 0.6501387454963606 0  0.3155590340628585 1.404525191399524 0  2.882869832830567 2.34375 0  2.870920053465905 1.194155645913985 0  2.637097427312042 1.337286339640011 0  0.758354336183694 1.964351748677738 0  1.419682598243761 1.342121225524622 0  2.051575502227575 2.002412749962418 0  0 2.874917644786067 0  2.459587260927691 1.393274219238519 0  2.336429735697933 0.953664536287645 0  1.039369510865974 2.702360248195095 0  0.1309726187429949 2.308341124780174 0  2.394147238518848 0.1495695836501439 0  1.772091901772802 0.2476018430485788 0  1.684860831117
[...]
<PointData  Scalars="f_21"> 
<DataArray  type="Float64"  Name="f_21"  format="ascii">1.9000000000000000e+01  2.9947327388875049e+00  2.9991218658821599e+00  2.9782004921382614e+00  2.9305218058836777e+00  2.8587536285221651e+00  2.7669116889823955e+00  2.6601349269314190e+00  2.5443979476614675e+00  2.4261767179987590e+00  2.3120862089428806e+00  2.2085102604427642e+00  2.1212443789191902e+00  2.0551714545026263e+00  2.0139885429597943e+00  2.0000000000000000e+00  1.0000000000000000e+01  2.8000000000000000e+01  8.9947301344530999e+00  5.4940723779226381e+00  1.4500000000000000e+01  2.1250000000000000e+01  1.2630657789316290e+01  5.0000000000000000e+00  2.0125000000000000e+01  1.4368633195761744e+01  1.1125000000000000e+01  2.4062500000000004e+01  7.6480193313160214e+00  1.1554616521390695e+01  1.9562500000000000e+01  1.8111023329613630e+01  9.0715604771620857e+00  1.5909435522507923e+01  7.2500000000000000e+00  1.3496706008478887e+01  8.4067996327599701e+00  2.0281453139156255e+01  9.2209251000434449e+00  8.9391562015410422e+00  3.2500000000000000e+00  1.2874208788706085e+01  1.7582996096267600e+01  1.2758904608355103e+01  1.9140625000000000e+01  1.0281250000000002e+01  5.5807690710701863e+00  6.2378980542743632e+00  1.0503263730371371e+01  1.3112962789231531e+01  6.2198060446200145e+00  1.6305338598904289e+01  2.3781250000000000e+01  2.5890625000000000e+01  9.7611430058249642e+00  6.4098042261858801e+00  2.0265625000000000e+01  1.5140734793151250e+01  1.5173295364563957e+01  4.7555312417806990e+00  9.5027049115496478e+00  1.3953793034803603e+01  1.2531250000000000e+01  2.2515625000000004e+01  2.0966692730870658e+01  1.1426087510097483e+01  1.8290817419501803e+01  1.7031250000000000e+01  1.7678849716584427e+01  1.9826527961461732e+01  1.5878199135744538e+01  1.7036561517261077e+01  1.1335151664270469e+01  1.0987093556454081e+01  1.5090666575458663e+01  9.0143816728203650e+00  1.6025743315699135e+01  6.0625000000000000e+00  7.9535841392113813e+00  2.3118585266913311e+01  1.0123238340345612e+01  6.7039674983320126e+00  1.2438902745854287e+01  6.7464905615363282e+00  2.0726943253170354e+01  1.8904680776708062e+01  7.8395892202798718e+00  1.2769013378302116e+01  7.0273697168899432e+00  1.0263213412906403e+01  8.3854606964637206e+00  2.3436268318192962e+01  4.1192377937181552e+00  1.1018146035907129e+01  1.8549067265418277e+01  1.7692104901291057e+01  7.1192364915009527e+00  1.7001240092538893e+01  2.5625000000000000e+00  8.4951377923732068e+00  8.8221633305760392e+00  1.0753488478057626e+01  4.7254364658503460e+00  1.6123188239552526e+01  1.1120553306779078e+01  8.5625000000000000e+00  4.0625000000000000e+00  1.3506677140851444e+01  1.4406435185216196e+01  3.5746691072588499e+00  7.0406712873559147e+00  1.9128473548216885e+01  1.3390736682364389e+01  1.1008695193966547e+01  1.2795660823341326e+01  1.6778408310319445e+01  4.4718800642503620e+00  7.1958469969141969e+00  5.9978309879094418e+00  1.3430016419809361e+01  2.5820312500000004e+01  9.1634563396508621e+00  4.6964403194135365e+00  4.6321363705683423e+00  4.9172880862541408e+00  1.8453201797384185e+01  1.4250856482675548e+01  1.2782671554371570e+01  1.9035156250000000e+01  2.1101105053617133e+01  1.1750527578278716e+01  6.0267749292045254e+00  1.9727124571513553e+01  3.9196618031223509e+00  8.4674332241196950e+00  1.5796004637561266e+01  1.2630527426735805e+01  3.6267133033208157e+00  1.1533216319926209e+01  1.4679603740208774e+01  1.6146922735567983e+01  1.4878036397164024e+01  5.5948124402649144e+00  1.4810154030949828e+01  2.6910156250000000e+01  9.9691387453490083e+00  1.0724964534308814e+01  1.0632812500000000e+01  9.8526080037950585e+00  8.9121336143672139e+00  1.9503116048644262e+01  7.3694531230018177e+00  1.4338321964243381e+01  1.3914428574197892e+01  1.6598466662504610e+01  2.3253906249999996e+01  1.7394197220255506e+01  1.5844082085421718e+01  1.0779401087730379e+01  1.1795527045683279e+01  2.1526789744370316e+01  1.0391830243460005e+01  1.5427748641350647e+01  1.8114082616457186e+01  1.1146297636544574e+01  1.7030073187723797e+01  5.4858489495200464e+00  1.3445312500000002e+01  1.0070312499999998e+01  1.8332819043027939e+01  2.2446421735824487e+01  9.8599898510273949e+00  1.2861758777081246e+01  1.0537003404896440e+01  8.7528303081662049e+00  7.7366130772682844e+00  7.5998583685946262e+00  1.6851619904092839e+01  1.9406689488030793e+01  8.9060284582658582e+00  1.1757812499999998e+01  1.1162123722548447e+01  1.2081692704018746e+01  4.7776804689185441e+00  1.5695312500000000e+01  1.9316406250000000e+01  1.9878906250000000e+01  2.4941406250000000e+01  2.0722656250000000e+01  2.1882812500000000e+01  2.1847656250000000e+01  1.8507812500000000e+01  1.5021108430863361e+01  2.2521958541325425e+01  2.9375396303942884e+00  2.4941090287361501e+01  1.4818698141817519e+01  1.5672754960245355e+01  1.9649834955794653e+01  1.9032393184553847e+01  1.7189521903987647e+01  1.3744977833824869e+01  1.6526015100148069e+01  1.7167977322904246e+01  1.7454987226734247e+01  1.7104655028668439e+01  1.1966264083426360e+01  1.0006141903281279e+01  1.2112152029051103e+01  8.0256921218052959e+00  8.1502756707709612e+00  1.8161362429201869e+01  9.6624242235928843e+00  9.5112862439612957e+00  7.0871063905473024e+00  2.1452535993448354e+01  2.4332375043046728e+01  2.1127041155814940e+01  1.1279082294339737e+01  1.1648726547965094e+01  5.8497367788463279e+00  1.2237023311248956e+01  1.3737144021508941e+01  1.6315196833617911e+01  8.6161910174095446e+00  1.6257107515749578e+01  6.9067946133031901e+00  1.3897350508438622e+01  1.4584395100566161e+01  7.1017767799312654e+00  1.1407400391845870e+01  1.0183242404437697e+01  7.8906250000000000e+00  8.0872121599917648e+00  9.7056654086017726e+00  2.0336822362507068e+01  1.3982694057119243e+01  2.2222804623852635e+01  1.9724731061555104e+01  9.0070163231665781e+00  7.4691386168244565e+00  1.9119621918625285e+01  9.2862988566820146e+00  9.7266826176896277e+00  9.2656250000000000e+00  8.0943219940226605e+00  2.0751547946380764e+01  5.5156250000000000e+00  1.7975678371496265e+01  6.6406250000000000e+00  1.6168065250016635e+01  9.2119007175498098e+00  4.2105933649802765e+00  6.5289026213169281e+00  7.0740426504419656e+00  8.0073495704338278e+00  4.1106636502089158e+00  5.4678535716252119e+00  1.0229904400685840e+01  9.6644487712304450e+00  5.2156880366286300e+00  3.8549870640479984e+00  3.5256940751311006e+00  1.2503817869685285e+01  2.2029478251859516e+01  9.9007279907992274e+00  1.1571889599492280e+01  5.8833346683770538e+00  6.5080541165132635e+00  1.3478459657914547e+01  1.2404705566129524e+01  1.8635037641130172e+01  1.0173361450944780e+01  6.7004022969326709e+00  6.1965372333062723e+00  2.0802913284101340e+01  1.2777942979211110e+01  1.3262535387205940e+01  1.1862061562137185e+01  9.9966471335825524e+00  1.6241594279834967e+01  1.7530302928604534e+01  1.3281169220137370e+01  1.0665647509671281e+01  1.8064536776341392e+01  1.2227066627241934e+01  7.3633582577014112e+00  5.3741845274587785e+00  5.5987275232608855e+00  1.3969733466442397e+01  2.3243814635723762e+01  1.9903045706861509e+01  8.0880421328966836e+00  2.2169058383022005e+01  7.6175472889447544e+00  1.5962829512675173e+01  1.7782025247725144e+01  1.9173184346074567e+01  1.0695696752382283e+01  6.9865878279069999e+00  1.3271951427996543e+01  9.1787156794340454e+00  9.6189123389168358e+00  8.4558658740878201e+00  7.0878763563889526e+00  1.0483309544514393e+01  1.8988210417235013e+01  1.2246078050766995e+01  1.2430047744728782e+01  1.7175182483522526e+01  1.1574320969171726e+01  1.8198944375177597e+01  1.1817520533265059e+01  5.9702080788007068e+00  1.9849077476762275e+01  6.2496745504163789e+00  8.7154169221548852e+00  8.7451065989320114e+00  1.5923985281816982e+01  1.3790741081646456e+01  2.3947038799046755e+01  2.5511000580667211e+01  1.8593617238332612e+01  1.0228103957593280e+01  2.6316072263890415e+01  3.8421413668461777e+00  1.8999955757371804e+01  3.6422686106530247e+00  1.1705815047745277e+01  1.8414167641678276e+01  1.5115949852167995e+01  2.0612574304648799e+01  8.4526150437731236e+00  1.0990887296575359e+01  7.4165751559548809e+00  1.7856459007253370e+01  1.6053714054372371e+01  1.4051630104917052e+01  7.9947780353408247e+00  6.5668543811647515e+00  1.3752216175123579e+01  1.4495635330458265e+01  1.4872058345258736e+01  2.2656250000000000e+00  4.6090021032328536e+00  1.0026350529444359e+01  3.9377351963873690e+00  3.6406250000000000e+00  4.5189042660968060e+00  1.2697232402687415e+01  1.0853799243542458e+01  3.1409409495739795e+00  3.2162944566784932e+00  1.9344344973158368e+01  7.9284965007242443e+00  4.5917646135194303e+00  5.1877016345555527e+00  7.8518044293600289e+00  1.7355806985842225e+01  9.1560655209425050e+00  1.8418441700932274e+01  1.3292920345389824e+01  1.5149772142187990e+01  1.7464701406887539e+01  1.3399351205282741e+01  5.2573627166528691e+00  6.2753632435400668e+00  1.2277338466457254e+01  1.4778655932843979e+01  4.7753638946486676e+00  1.5144542502983851e+01  1.5080963670569108e+01  1.3996838665409598e+01  1.3318809785558038e+01  1.4036122914174834e+01  4.5156250000000000e+00  2.8906250000000000e+00  1.4793600875596301e+01  1.2938564642190766e+01  5.3278982581162815e+00  3.4018417903158711e+00  1.8512549029803107e+01  1.1852147676490521e+01  1.0046240092041094e+01  1.0871793287519134e+01  1.4511571196464798e+01  4.2646768718435286e+00  2.8134932117354472e+00  3.8625933538607486e+00  8.1184320741284530e+00  2.0470324749255411e+01  2.1765741141038269e+01  1.8781501255883921e+01  1.0243076347120002e+01  8.5339479100028193e+00  8.8771559197323668e+00  1.5080078125000002e+01  1.5430045769706236e+01  1.6939885806603144e+01  1.3755885539015118e+01  1.7150797665942527e+01  1.7221633280816977e+01  1.1893451148213348e+01  1.2539916993154197e+01  1.7462609042363717e+01  1.1305406494989111e+01  7.8736609711519199e+00  2.4538967958781083e+01  1.5293992518278770e+01  1.5888558901630891e+01  1.0878283622836316e+01  9.4878442713845956e+00  1.5861268843120435e+01  6.2600307339061798e+00  5.2619471324929181e+00  7.3731626901201457e+00  1.6691407057551917e+01  3.8252272407793444e+00  2.0011216934667925e+01  2.1516464678275845e+01  1.0304823140457685e+01  1.4161547629252976e+01  1.5609648089151305e+01  9.5427567482275855e+00  1.7751953125000000e+01  2.0063476562500000e+01  1.8343455889692564e+01  5.4502910821045640e+00  4.7687174276539634e+00  1.8194518737219781e+01  1.9316475134996125e+01  1.8700412338206164e+01  1.4856206731737151e+01  1.2122513445027220e+01  9.9584923887431565e+00  3.6130853285300040e+00  5.6950814008234385e+00  8.8116944445444449e+00  4.4874357679980852e+00  2.0481425046140572e+01  1.9298828124999996e+01  1.7966020787855975e+01  1.0810046873799287e+01  6.2101368909912056e+00  1.3086047835825873e+01  2.3259574066144420e+01  1.5639616225673288e+01  8.4547410646106940e+00  1.7182443112783488e+01  1.4724939346687295e+01  1.0264966805754019e+01  1.0854383646492971e+01  1.1069098231528280e+01  1.5652122611859273e+01  1.5888632338899733e+01  2.1206494996024247e+01  1.9008789062500000e+01  1.7790788443670227e+01  1.0017578125000000e+01  1.9998686456917458e+01  9.8261875061543051e+00  5.9880813997063171e+00  6.3320766948421552e+00  1.7930621143285588e+01  1.5742610457775907e+01  1.6529924625590557e+01  7.3623819892570408e+00  7.1215205673444979e+00  6.2010750568949415e+00  2.2273826656174165e+01  6.7038832238097283e+00  1.0733551543298352e+01  9.3977262806818676e+00  7.7904287941061670e+00  8.7718536205607194e+00  1.3595055138250210e+01  1.4338053541009655e+01  1.4697417353250747e+01  1.4647655277360034e+01  2.2455771876892101e+01  1.5410573152561270e+01  1.5199979893545716e+01  4.0562350857716840e+00  1.0605490041809968e+01  4.1534218047513525e+00  3.0639869249045133e+00  1.6307711959107106e+01  1.2652874621366676e+01  1.3479028354253799e+01  2.1185583738775698e+01  1.2200300955204787e+01  5.7095968811288689e+00  1.1552294696129925e+01  1.9095933640240347e+01  6.8596791764351819e+00  1.9320097712178136e+01  9.9114312210252589e+00  1.1841711223776144e+01  1.4557027847196981e+01  8.7518619093750054e+00  8.4122485019588300e+00  9.3569204922158153e+00  1.1581251726847734e+01  1.2530270101318585e+01  1.6844936452523910e+01  2.0155641163027806e+01  2.0588608124934733e+01  2.1513325333295995e+01  2.0308276724956578e+01  6.1797033741571541e+00  5.2844357110507740e+00  5.3590590628373791e+00  1.8543759123649593e+01  5.9336384930484289e+00  1.0014655747360173e+01  9.4833957230374004e+00  1.0645405331550668e+01  9.2210737220042986e+00  1.3955078125000002e+01  2.2240181696151456e+01  1.8569716686621582e+01  1.7017701090810242e+01  1.6609639144616885e+01  9.8138538590943760e+00  6.7258982161502079e+00  7.7120248106805436e+00  7.0610000969480913e+00  4.1828142192242517e+00  1.2636864754885105e+01  1.2666840590242341e+01  1.5735788712300911e+01  1.3455022365427883e+01  1.3357870903923551e+01  2.3247306708737227e+01  9.2686921654632055e+00  1.1682899302138869e+01  1.9354510034952945e+01  2.4326122826048810e+00  1.5573149452175944e+01  1.9318015528656698e+01  1.6473674878353364e+01  1.7666192378183833e+01  1.5808022284357273e+01  1.6458129539994250e+01  6.2395314334077607e+00  4.8877608691125767e+00  8.3481729939188227e+00  8.6287346898968931e+00  1.4709035048665568e+01  2.0977539062500000e+01  5.4701594176082855e+00  1.0834592639271960e+01  1.6666153477743741e+01  1.8731193036012733e+01  7.8578975036851162e+00  1.0383361937772676e+01  1.1865177408556901e+01  1.0999711817112169e+01  2.0482316505045155e+01  1.6603674695930877e+01  1.6237729676940418e+01  2.4493164062500000e+01  2.4001732805934768e+01  1.6814699490973432e+01  1.6432031114624788e+01  9.3695883688200183e+00  2.2875976562500000e+01  1.0032141034907450e+01  1.9718040436956286e+01  9.1260203489112008e+00  1.1314147621854415e+01  1.0646183999915282e+01  1.1374309314780190e+01  2.5059035684678950e+01  2.3991491738405578e+01  2.3252174967946527e+01  2.2827558299915840e+01  3.4033631976819896e+00  1.3334105053195925e+01  1.1086108567399132e+01  1.8838935369611253e+01  1.3156996020364177e+01  9.7705570496144336e+00  1.1423828125000000e+01  8.3226756852081731e+00  9.2796244241986940e+00  1.3147370465705588e+01  4.9242284199128523e+00  1.3525447979635846e+01  5.7449469390172112e+00  9.5458532600985038e+00  9.6877191968125178e+00  1.7369387632183322e+01  1.6940834143810203e+01  1.2686115020376780e+01  5.3551037492745035e+00  1.2100281216857203e+01  1.3599432857756961e+01  8.1950935247786632e+00  1.9968736006620482e+01  1.9995558734891866e+01  9.6924023022868280e+00  7.5000001948878099e+00  8.2785235071811183e+00  8.0998337172252572e+00  7.0113970838330397e+00  1.1133511309535756e+01  1.0044068788632879e+01  1.0732987939544209e+01  1.2379618130590591e+01  1.1621905409693614e+01  1.2134523341681076e+01  2.3185095725919066e+01  1.4339699757244651e+01  8.8621806692947107e+00  3.8582613981654070e+00  1.0439453125000000e+01  1.4265645764207997e+01  2.2172851562500000e+01  1.2091300855402229e+01  1.4585318183553424e+01  1.5518634300626241e+01  1.4642754821017270e+01  1.4073417475521861e+01  2.1396640432427553e+01  1.5046438460498097e+01  2.0785764136359440e+01  1.2326047885674322e+01  1.7759376805855016e+01  2.2814453125000000e+01  1.9219726562500000e+01  1.9430664062500000e+01  2.6391601562500000e+01  2.0485351562500000e+01  1.9079101562500000e+01  1.9711914062500000e+01  1.0861328125000000e+01  1.2126953125000000e+01  1.2970703125000000e+01  2.0986328125000000e+01  2.1540039062500004e+01  1.0158203125000000e+01  1.6345703125000000e+01  2.4783203124999996e+01  2.6892578125000000e+01  2.7446289062500000e+01  2.5407226562500000e+01  2.3649414062500004e+01  1.7695431666252961e+01  1.6762047574909140e+01  9.2878480892923125e+00  1.4579639911118532e+01  9.3612983706639241e+00  1.0347086869093410e+01  1.3380541828740380e+01  2.7681078547671247e+00  3.2926194592979710e+00  9.0038524001910805e+00  1.1132975531948404e+01  8.6380351416805006e+00  1.2412576666920373e+01  1.0558905619917120e+01  6.4418190988824859e+00  1.7897734183101942e+01  6.6192275016551427e+00  7.8719219442312323e+00  4.0372809644800034e+00  1.5291161138970455e+01  1.7526720945358953e+01  1.2124640484578947e+01  3.2509932327402793e+00  1.9167145516673624e+01  1.0163917976968561e+01  1.3217338249682902e+01  7.2227098329313923e+00  1.8260564749617121e+01  1.9014301494487473e+01  1.3065706715500767e+01  4.5494277148495854e+00  1.4066025967804585e+01  6.3501030450203952e+00  1.4383882844879642e+01  1.9626431525599369e+01  2.3852981519579015e+00  1.7884333749431821e+01  9.4376759202947618e+00  1.0288376212563788e+01  7.4690761445419511e+00  6.6534202083987060e+00  2.5845021441844658e+01  2.0018524656400260e+01  2.2263843596719177e+01  2.0983116946237026e+01  1.1407352346390148e+01  1.2522024474407266e+01  1.2218362748385807e+01  1.5367238691248357e+01  1.6312411455033669e+01  2.0197219819521241e+01  1.9065452567558360e+01  2.5293781162886657e+00  7.5559759642628501e+00  9.0496120980749808e+00  9.9874356469928163e+00  4.6816619631662126e+00  1.7958183668065274e+01  1.1754523522903085e+01  1.3103522547767932e+01  1.1893820094194147e+01  2.1857224203205735e+01  2.1069382640861139e+01  1.8904401115710595e+01  1.5651727647018983e+01  9.8640917644877266e+00  1.6121066167658732e+01  1.6923854724048780e+01  1.6942112970702581e+01  1.8605529514046566e+01  2.9214132060384133e+00  9.5429741507962813e+00  1.7197426261007482e+01  1.4133819339465754e+01  8.5640023794356850e+00  1.5065969118163533e+01  9.8630120289472121e+00  5.1819885090990851e+00  5.9106623971973962e+00  1.7256955816886446e+01  4.9544383282372770e+00  8.2023172684494536e+00  1.0337578640255911e+01  7.8738779245558659e+00  1.1545986307582689e+01  1.2307289777480110e+01  1.6432723440702304e+01  1.5757467101284062e+01  2.4607660294204901e+01  5.6020046462502870e+00  1.0946032398823540e+01  9.3753168783373297e+00  2.1117218085193596e+01  1.7677978794548132e+01  2.3622557574049210e+01  2.5045425858896923e+01  1.0460861002060469e+01  7.5742968708823524e+00  7.2098777595059405e+00  6.5554606279764585e+00  1.1230450210616674e+01  1.7401526317117497e+01  1.5944304197392965e+01  8.6859927760586881e+00  1.4119842190699233e+01  1.2453015985738835e+01  1.1120786554351310e+01  1.2014780636048810e+01  1.1339136405114823e+01  1.9941392195124237e+01  8.6771027494789088e+00  1.7486306361986557e+01  1.8243108619686044e+01  1.0180658364279912e+01  2.2153784246573082e+01  1.1600220882572829e+01  7.6919297397467208e+00  6.5892162897950444e+00  7.2543749631561498e+00  3.4690773253055061e+00  1.4048289210874479e+01  7.2030329637429400e+00  7.7919231260782826e+00  6.9288325397931683e+00  8.7058583377402226e+00  5.0767738154278979e+00  7.9540228033189511e+00  1.8101911099224132e+01  1.1234841088494280e+01  8.1494337202404292e+00  5.0385240835407519e+00  1.9219688880949366e+01  1.8874858734483649e+01  1.4502076029165899e+01  8.3308965179783137e+00  9.1399603705179544e+00  8.9142428319017526e+00  1.1544065967374275e+01  1.2541054333415650e+01  1.2740853409082689e+01  1.2742716584757215e+01  1.1064589924980215e+01  1.1517210086976954e+01  2.0385594777344924e+01  1.9501644395656861e+01  3.3380651604225675e+00  1.7041637091123597e+01  7.8885119692279746e+00  6.5042935888737459e+00  1.8463221106515640e+01  1.3593641334186648e+01  8.1949145384966524e+00  2.3888146060839759e+01  8.8762206647265653e+00  9.1603483893680835e+00  1.8309586926438104e+01  9.1159939082930261e+00  1.7858118785328070e+01  9.4074521771464248e+00  1.4132356408263719e+01  1.6497106990066264e+01  4.5595035197851557e+00  5.9819012955962618e+00  1.2174653613201096e+01  5.4765199048588924e+00  7.0313166716758575e+00  1.9619017444311783e+01  3.4414062499999996e+00  1.0402108606719628e+01  1.0490126781404127e+01  1.0672241270239081e+01  9.6825661936792002e+00  1.1054654318417962e+01  1.1602497215481600e+01  1.9493705822204277e+01  9.3524364879713655e+00  1.7390637734405519e+01  1.8217354933919349e+01  1.1523349352926898e+01  6.9063830211038990e+00  6.1971000643152498e+00  1.3719854208825884e