<?xml version="1.0"?>
<VTKFile type="UnstructuredGrid"  version="0.1"  >
<UnstructuredGrid>
<Piece  NumberOfPoints="5101" NumberOfCells="10000">
<Points>
<DataArray  type="Float64"  NumberOfComponents="3"  format="ascii">0 0 0  0.2 0 0  0.4 0 0  0.6 0 0  0.8 0 0  1 0 0  1.2 0 0  1.4 0 0  1.6 0 0  1.8 0 0  2 0 0  2.2 0 0  2.4 0 0  2.6 0 0  2.8 0 0  3 0 0  3.2 0 0  3.4 0 0  3.6 0 0  3.8 0 0  4 0 0  4.2 0 0  4.4 0 0  4.6 0 0  4.8 0 0  5 0 0  5.2 0 0  5.4 0 0  5.6 0 0  5.8 0 0  6 0 0  6.2 0 0  6.4 0 0  6.6 0 0  6.8 0 0  7 0 0  7.2 0 0  7.4 0 0  7.6 0 0  7.8 0 0  8 0 0  8.199999999999999 0 0  8.4 0 0  8.6 0 0  8.800000000000001 0 0  9 0 0  9.199999999999999 0 0  9.4 0 0  9.6 0 0  9.800000000000001 0 0  10 0 0  0 0.2 0  0.2 0.2 0  0.4 0.2 0  0.6 0.2 0  0.8 0.2 0  1 0.2 0  1.2 0.2 0  1.4 0.2 0  1.6 0.2 0  1.8 0.2 0  2 0.2 0  2.2 0.2 0  2.4 0.2 0  2.6 0.2 0  2.8 0.2 0  3 0.2 0  3.2 0.2 0  3.4 0.2 0  3.6 0.2 0  3.8 0.2 0  4 0.2 0  4.2 0.2 0  4.4 0.2 0  4.6 0.2 0  4.8 0.2 0  5 0.2 0  5.2 0.2 0  5.4 0.2 0  5.6 0.2 0  5.8 0.2 0  6 0.2 0  6.2 0.2 0  6.4 0.2 0  6.6 0.2 0  6.8 0.2 0  7 0.2 0  7.2 0.2 0  7.4 0.2 0  7.6 0.2 0  7.8 0.2 0  8 0.2 0  8.199999999999999 0.2 0  8.4 0.2 0  8.6 0.2 0  8.800000000000001 0.2 0  9 0.2 0  9.199999999999999 0.2 0  9.4 0.2 0  9.6 0.2 0  9.800000000000001 0.2 0  10 0.2 0  0 0.4 0  0.2 0.4 0  0.4 0.4 0  0.6 0.4 0  0.8 0.4 0  1 0.4 0  1.2 0.4 0  1.4 0.4 0  1.6 0.4 0  1.8 0.4 0  2 0.4 0  2.2 0.4 0  2.4 0.4 0  2.6 0.4 0  2.8 0.4 0  3 0.4 0  3.2 0.4 0  3.4 0.4 0  3.6 0.4 0  3.8 0.4 0  4 0.4 0  4.2 0.4 0  4.4 0.4 0  4.6 0.4 0  4.8 0.4 0  5 0.4 0  5.2 0.4 0  5.4 0.4 0  5.6 0.4 0  5.8 0.4 0  6 0.4 0  6.2 0.4 0  6.4 0.4 0  6.6 0.4 0  6.8 0.4 0  7 0.4 0  7.2 0.4 0  7.4 0.4 0  7.6 0.4 0  7.8 0.4 0  8 0.4 0  8.199999999999999 0.4 0  8.4 0.4 0  8.6 0.4 0  8.800000000000001 0.4 0  9 0.4 0  9.199999999999999 0.4 0  9.4 0.4 0  9.6 0.4 0  9.800000000000001 0.4 0  10 0.4 0  0 0.6 0  0.2 0.6 0  0.4 0.6 0  0.6 0.6 0  0.8 0.6 0  1 0.6 0  1.2 0.6 0  1.4 0.6 0  1.6 0.6 0  1.8 0.6 0  2 0.6 0  2.2 0.6 0  2.4 0.6 0  2.6 0.6 0  2.8 0.6 0  3 0.6 0  3.2 0.6 0  3.4 0.6 0  3.6 0.6 0  3.8 0.6 0  4 0.6 0  4.2 0.6 0  4.4 0.6 0  4.6 0.6 0  4.8 0.6 0  5 0.6 0  5.2 0.6 0  5.4 0.6 0  5.6 0.6 0  5.8 0.6 0  6 0.6 0  6.2 0.6 0  6.4 0.6 0  6.6 0.6 0  6.8 0.6 0  7 0.6 0  7.2 0.6 0  7.4 0.6 0  7.6 0.6 0  7.8 0.6 0  8 0.6 0  8.199999999999999 0.6 0  8.4 0.6 0  8.6 0.6 0  8.800000000000001 0.6 0  9 0.6 0  9.199999999999999 0.6 0  9.4 0.6 0  9.6 0.6 0  9.800000000000001 0.6 0  10 0.6 0  0 0.8 0  0.2 0.8 0  0.4 0.8 0  0.6 0.8 0  0.8 0.8 0  1 0.8 0  1.2 0.8 0  1.4 0.8 0  1.6 0.8 0  1.8 0.8 0  2 0.8 0  2.2 0.8 0  2.4 0.8 0  2.6 0.8 0  2.8 0.8 0  3 0.8 0  3.2 0.8 0  3.4 0.8 0  3.6 0.8 0  3.8 0.8 0  4 0.8 0  4.2 0.8 0  4.4 0.8 0  4.6 0.8 0  4.8 0.8 0  5 0.8 0  5.2 0.8 0  5.4 0.8 0  5.6 0.8 0  5.8 0.8 0  6 0.8 0  6.2 0.8 0  6.4 0.8 0  6.6 0.8 0  6.8 0.8 0  7 0.8 0  7.2 0.8 0  7.4 0.8 0  7.6 0.8 0  7.8 0.8 0  8 0.8 0  8.199999999999999 0.8 0  8.4 0.8 0  8.6 0.8 0  8.800000000000001 0.8 0  9 0.8 0  9.199999999999999 0.8 0  9.4 0.8 0  9.6 0.8 0  9.800000000000001 0.8 0  10 0.8 0  0 1 0  0.2 1 0  0.4 1 0  0.6 1 0  0.8 1 0  1 1 0  1.2 1 0  1.4 1 0  1.6 1 0  1.8 1 0  2 1 0  2.2 1 0  2.4 1 0  2.6 1 0  2.8 1 0  3 1 0  3.2 1 0  3.4 1 0  3.6 1 0  3.8 1 0  4 1 0  4.2 1 0  4.4 1 0  4.6 1 0  4.8 1 0  5 1 0  5.2 1 0  5.4 1 0  5.6 1 0  5.8 1 0  6 1 0  6.2 1 0  6.4 1 0  6.6 1 0  6.8 1 0  7 1 0  7.2 1 0  7.4 1 0  7.6 1 0  7.8 1 0  8 1 0  8.199999999999999 1 0  8.4 1 0  8.6 1 0  8.800000000000001 1 0  9 1 0  9.199999999999999 1 0  9.4 1 0  9.6 1 0  9.800000000000001 1 0  10 1 0  0 1.2 0  0.2 1.2 0  0.4 1.2 0  0.6 1.2 0  0.8 1.2 0  1 1.2 0  1.2 1.2 0  1.4 1.2 0  1.6 1.2 0  1.8 1.2 0  2 1.2 0  2.2 1.2 0  2.4 1.2 0  2.6 1.2 0  2.8 1.2 0  3 1.2 0  3.2 1.2 0  3.4 1.2 0  3.6 1.2 0  3.8 1.2 0  4 1.2 0  4.2 1.2 0  4.4 1.2 0  4.6 1.2 0  4.8 1.2 0  5 1.2 0  5.2 1.2 0  5.4 1.2 0  5.6 1.2 0  5.8 1.2 0  6 1.2 0  6.2 1.2 0  6.4 1.2 0  6.6 1.2 0  6.8 1.2 0  7 1.2 0  7.2 1.2 0  7.4 1.2 0  7.6 1.2 0  7.8 1.2 0  8 1.2 0  8.199999999999999 1.2 0  8.4 1.2 0  8.6 1.2 0  8.800000000000001 1.2 0  9 1.2 0  9.199999999999999 1.2 0  9.4 1.2 0  9.6 1.2 0  9.800000000000001 1.2 0  10 1.2 0  0 1.4 0  0.2 1.4 0  0.4 1.4 0  0.6 1.4 0  0.8 1.4 0  1 1.4 0  1.2 1.4 0  1.4 1.4 0  1.6 1.4 0  1.8 1.4 0  2 1.4 0  2.2 1.4 0  2.4 1.4 0  2.6 1.4 0  2.8 1.4 0  3 1.4 0  3.2 1.4 0  3.4 1.4 0  3.6 1.4 0  3.8 1.4 0  4 1.4 0  4.2 1.4 0  4.4 1.4 0  4.6 1.4 0  4.8 1.4 0  5 1.4 0  5.2 1.4 0  5.4 1.4 0  5.6 1.4 0  5.8 1.4 0  6 1.4 0  6.2 1.4 0  6.4 1.4 0  6.6 1.4 0  6.8 1.4 0  7 1.4 0  7.2 1.4 0  7.4 1.4 0  7.6 1.4 0  7.8 1.4 0  8 1.4 0  8.199999999999999 1.4 0  8.4 1.4 0  8.6 1.4 0  8.800000000000001 1.4 0  9 1.4 0  9.199999999999999 1.4 0  9.4 1.4 0  9.6 1.4 0  9.800000000000001 1.4 0  10 1.4 0  0 1.6 0  0.2 1.6 0  0.4 1.6 0  0.6 1.6 0  0.8 1.6 0  1 1.6 0  1.2 1.6 0  1.4 1.6 0  1.6 1.6 0  1.8 1.6 0  2 1.6 0  2.2 1.6 0  2.4 1.6 0  2.6 1.6 0  2.8 1.6 0  3 1.6 0  3.2 1.6 0  3.4 1.6 0  3.6 1.6 0  3.8 1.6 0  4 1.6 0  4.2 1.6 0  4.4 1.6 0  4.6 1.6 0  4.8 1.6 0  5 1.6 0  5.2 1.6 0  5.4 1.6 0  5.6 1.6 0  5.8 1.6 0  6 1.6 0  6.2 1.6 0  6.4 1.6 0  6.6 1.6 0  6.8 1.6 0  7 1.6 0  7.2 1.6 0  7.4 1.6 0  7.6 1.6 0  7.8 1.6 0  8 1.6 0  8.199999999999999 1.6 0  8.4 1.6 0  8.6 1.6 0  8.800000000000001 1.6 0  9 1.6 0  9.199999999999999 1.6 0  9.4 1.6 0  9.6 1.6 0  9.800000000000001 1.6 0  10 1.6 0  0 1.8 0  0.2 1.8 0  0.4 1.8 0  0.6 1.8 0  0.8 1.8 0  1 1.8 0  1.2 1.8 0  1.4 1.8 0  1.6 1.8 0  1.8 1.8 0  2 1.8 0  2.2 1.8 0  2.4 1.8 0  2.6 1.8 0  2.8 1.8 0  3 1.8 0  3.2 1.8 0  3.4 1.8 0  3.6 1.8 0  3.8 1.8 0  4 1.8 0  4.2 1.8 0  4.4 1.8 0  4.6 1.8 0  4.8 1.8 0  5 1.8 0  5.2 1.8 0  5.4 1.8 0  5.6 1.8 0  5.8 1.8 0  6 1.8 0  6.2 1.8 0  6.4 1.8 0  6.6 1.8 0  6.8 1.8 0  7 1.8 0  7.2 1.8 0  7.4 1.8 0  7.6 1.8 0  7.8 1.8 0  8 1.8 0  8.199999999999999 1.8 0  8.4 1.8 0  8.6 1.8 0  8.800000000000001 1.8 0  9 1.8 0  9.199999999999999 1.8 0  9.4 1.8 0  9.6 1.8 0  9.800000000000001 1.8 0  10 1.8 0  0 2 0  0.2 2 0  0.4 2 0  0.6 2 0  0.8 2 0  1 2 0  1.2 2 0  1.4 2 0  1.6 2 0  1.8 2 0  2 2 0  2.2 2 0  2.4 2 0  2.6 2 0  2.8 2 0  3 2 0  3.2 2 0  3.4 2 0  3.6 2 0  3.8 2 0  4 2 0  4.2 2 0  4.4 2 0  4.6 2 0  4.8 2 0  5 2 0  5.2 2 0  5.4 2 0  5.6 2 0  5.8 2 0  6 2 0  6.2 2 0  6.4 2 0  6.6 2 0  6.8 2 0  7 2 0  7.2 2 0  7.4 2 0  7.6 2 0  7.8 2 0  8 2 0  8.199999999999999 2 0  8.4 2 0  8.6 2 0  8.800000000000001 2 0  9 2 0  9.199999999999999 2 0  9.4 2 0  9.6 2 0  9.800000000000001 2 0  10 2 0  0 2.2 0  0.2 2.2 0  0.4 2.2 0  0.6 2.2 0  0.8 2.2 0  1 2.2 0  1.2 2.2 0  1.4 2.2 0  1.6 2.2 0  1.8 2.2 0  2 2.2 0  2.2 2.2 0  2.4 2.2 0  2.6 2.2 0  2.8 2.2 0  3 2.2 0  3.2 2.2 0  3.4 2.2 0  3.6 2.2 0  3.8 2.2 0  4 2.2 0  4.2 2.2 0  4.4 2.2 0  4.6 2.2 0  4.8 2.2 0  5 2.2 0  5.2 2.2 0  5.4 2.2 0  5.6 2.2 0  5.8 2.2 0  6 2.2 0  6.2 2.2 0  6.4 2.2 0  6.6 2.2 0  6.8 2.2 0  7 2.2 0  7.2 2.2 0  7.4 2.2 0  7.6 2.2 0  7.8 2.2 0  8 2.2 0  8.199999999999999 2.2 0  8.4 2.2 0  8.6 2.2 0  8.800000000000001 2.2 0  9 2.2 0  9.199999999999999 2.2 0  9.4 2.2 0  9.6 2.2 0  9.800000000000001 2.2 0  10 2.2 0  0 2.4 0  0.2 2.4 0  0.4 2.4 0  0.6 2.4 0  0.8 2.4 0  1 2.4 0  1.2 2.4 0  1.4 2.4 0  1.6 2.4 0  1.8 2.4 0  2 2.4 0  2.2 2.4 0  2.4 2.4 0  2.6 2.4 0  2.8 2.4 0  3 2.4 0  3.2 2.4 0  3.4 2.4 0  3.6 2.4 0  3.8 2.4 0  4 2.4 0  4.2 2.4 0  4.4 2.4 0  4.6 2.4 0  4.8 2.4 0  5 2.4 0  5.2 2.4 0  5.4 2.4 0  5.6 2.4 0  5.8 2.4 0  6 2.4 0  6.2 2.4 0  6.4 2.4 0  6.6 2.4 0  6.8 2.4 0  7 2.4 0  7.2 2.4 0  7.4 2.4 0  7.6 2.4 0  7.8 2.4 0  8 2.4 0  8.199999999999999 2.4 0  8.4 2.4 0  8.6 2.4 0  8.800000000000001 2.4 0  9 2.4 0  9.199999999999999 2.4 0  9.4 2.4 0  9.6 2.4 0  9.800000000000001 2.4 0  10 2.4 0  0 2.6 0  0.2 2.6 0  0.4 2.6 0  0.6 2.6 0  0.8 2.6 0  1 2.6 0  1.2 2.6 0  1.4 2.6 0  1.6 2.6 0  1.8 2.6 0  2 2.6 0  2.2 2.6 0  2.4 2.6 0  2.6 2.6 0  2.8 2.6 0  3 2.6 0  3.2 2.6 0  3.4 2.6 0  3.6 2.6 0  3.8 2.6 0  4 2.6 0  4.2 2.6 0  4.4 2.6 0  4.6 2.6 0  4.8 2.6 0  5 2.6 0  5.2 2.6 0  5.4 2.6 0  5.6 2.6 0  5.8 2.6 0  6 2.6 0  6.2 2.6 0  6.4 2.6 0  6.6 2.6 0  6.8 2.6 0  7 2.6 0  7.2 2.6 0  7.4 2.6 0  7.6 2.6 0  7.8 2.6 0  8 2.6 0  8.199999999999999 2.6 0  8.4 2.6 0  8.6 2.6 0  8.800000000000001 2.6 0  9 2.6 0  9.199999999999999 2.6 0  9.4 2.6 0  9.6 2.6 0  9.800000000000001 2.6 0  10 2.6 0  0 2.8 0  0.2 2.8 0  0.4 2.8 0  0.6 2.8 0  0.8 2.8 0  1 2.8 0  1.2 2.8 0  1.4 2.8 0  1.6 2.8 0  1.8 2.8 0  2 2.8 0  2.2 2.8 0  2.4 2.8 0  2.6 2.8 0  2.8 2.8 0  3 2.8 0  3.2 2.8 0  3.4 2.8 0  3.6 2.8 0  3.8 2.8 0  4 2.8 0  4.2 2.8 0  4.4 2.8 0  4.6 2.8 0  4.8 2.8 0  5 2.8 0  5.2 2.8 0  5.4 2.8 0  5.6 2.8 0  5.8 2.8 0  6 2.8 0  6.2 2.8 0  6.4 2.8 0  6.6 2.8 0  6.8 2.8 0  7 2.8 0  7.2 2.8 0  7.4 2.8 0  7.6 2.8 0  7.8 2.8 0  8 2.8 0  8.199999999999999 2.8 0  8.4 2.8 0  8.6 2.8 0  8.800000000000001 2.8 0  9 2.8 0  9.199999999999999 2.8 0  9.4 2.8 0  9.6 2.8 0  9.800000000000001 2.8 0  10 2.8 0  0 3 0  0.2 3 0  0.4 3 0  0.6 3 0  0.8 3 0  1 3 0  1.2 3 0  1.4 3 0  1.6 3 0  1.8 3 0  2 3 0  2.2 3 0  2.4 3 0  2.6 3 0  2.8 3 0  3 3 0  3.2 3 0  3.4 3 0  3.6 3 0  3.8 3 0  4 3 0  4.2 3 0  4.4 3 0  4.6 3 0  4.8 3 0  5 3 0  5.2 3 0  5.4 3 0  5.6 3 0  5.8 3 0  6 3 0  6.2 3 0  6.4 3 0  6.6 3 0  6.8 3 0  7 3 0  7.2 3 0  7.4 3 0  7.6 3 0  7.8 3 0  8 3 0  8.199999999999999 3 0  8.4 3 0  8.6 3 0  8.800000000000001 3 0  9 3 0  9.199999999999999 3 0  9.4 3 0  9.6 3 0  9.800000000000001 3 0  10 3 0  0 3.2 0  0.2 3.2 0  0.4 3.2 0  0.6 3.2 0  0.8 3.2 0  1 3.2 0  1.2 3.2 0  1.4 3.2 0  1.6 3.2 0  1.8 3.2 0  2 3.2 0  2.2 3.2 0  2.4 3.2 0  2.6 3.2 0  2.8 3.2 0  3 3.2 0  3.2 3.2 0  3.4 3.2 0  3.6 3.2 0  3.8 3.2 0  4 3.2 0  4.2 3.2 0  4.4 3.2 0  4.6 3.2 0  4.8 3.2 0  5 3.2 0  5.2 3.2 0  5.4 3.2 0  5.6 3.2 0  5.8 3.2 0  6 3.2 0  6.2 3.2 0  6.4 3.2 0  6.6 3.2 0  6.8 3.2 0  7 3.2 0  7.2 3.2 0  7.4 3.2 0  7.6 3.2 0  7.8 3.2 0  8 3.2 0  8.199999999999999 3.2 0  8.4 3.2 0  8.6 3.2 0  8.800000000000001 3.2 0  9 3.2 0  9.199999999999999 3.2 0  9.4 3.2 0  9.6 3.2 0  9.800000000000001 3.2 0  10 3.2 0  0 3.4 0  0.2 3.4 0  0.4 3.4 0  0.6 3.4 0  0.8 3.4 0  1 
[...]
<PointData  Scalars="f_5"> 
<DataArray  type="Float64"  Name="f_5"  format="ascii">2.0098331053849179e-02  1.5618348484935785e-01  2.2622504522942707e-01  2.6966643199343160e-01  2.9852039760739302e-01  3.1781785866154200e-01  3.3051658556200991e-01  3.3844605319599630e-01  3.4282795850305092e-01  3.4451747881097838e-01  3.4414070755735665e-01  3.4217680739862666e-01  3.3900924955282830e-01  3.3495866444888556e-01  3.3030404931824997e-01  3.2529618528050452e-01  3.2016555833976762e-01  3.1512622383718714e-01  3.1037659990089717e-01  3.0609795957823122e-01  3.0245131485824356e-01  2.9957337941293172e-01  2.9757230646897470e-01  2.9652388104994942e-01  2.9646877234349095e-01  2.9741130935651433e-01  2.9932003766093584e-01  3.0213007113675372e-01  3.0574700658700260e-01  3.1005196020755182e-01  3.1490714495816857e-01  3.2016135305123611e-01  3.2565473483724888e-01  3.3122235332741701e-01  3.3669610925923898e-01  3.4190473665550364e-01  3.4667162543634572e-01  3.5081020046038980e-01  3.5411643917491686e-01  3.5635779577896404e-01  3.5725724070135800e-01  3.5647017373158196e-01  3.5355033474638048e-01  3.4789788958883483e-01  3.3867705700906198e-01  3.2467878609232526e-01  3.0407979554448966e-01  2.7392250112983707e-01  2.2916999659745405e-01  1.5779425646664599e-01  2.0388001989649171e-02  8.6354182302193147e-03  8.9302940376718196e-02  1.4388333117697372e-01  1.8317297983127276e-01  2.0944907055271028e-01  2.2736710693302611e-01  2.3915271230752866e-01  2.4644860490070600e-01  2.5036253386866703e-01  2.5168733595495513e-01  2.5101261218206739e-01  2.4879472268717590e-01  2.4540251554843484e-01  2.4114723042380246e-01  2.3630207524742042e-01  2.3111469866134801e-01  2.2581451676253139e-01  2.2061614893426404e-01  2.1571984160454771e-01  2.1130958980147088e-01  2.0754962360348422e-01  2.0457994768590682e-01  2.0251165431300472e-01  2.0142272886965704e-01  2.0135500008022539e-01  2.0231273976553379e-01  2.0426319611487304e-01  2.0713907755897731e-01  2.1084273345952950e-01  2.1525154860683193e-01  2.2022391782908449e-01  2.2560511324791194e-01  2.3123239558964676e-01  2.3693882788018894e-01  2.4255538706553667e-01  2.4791109454127108e-01  2.5283096086414325e-01  2.5713152915182713e-01  2.6061367476009384e-01  2.6305203894641010e-01  2.6417998376265778e-01  2.6366815044764752e-01  2.6109336127760085e-01  2.5589227697601652e-01  2.4729125282519251e-01  2.3419483918391196e-01  2.1496611731335585e-01  1.8737920856838530e-01  1.4677328372918177e-01  9.0855428628196191e-02  8.8330348822729336e-03  3.5116722146122303e-03  5.2165925407455779e-02  9.0434919849381484e-02  1.2001594491938619e-01  1.4130132787462585e-01  1.5605530958760205e-01  1.6577761481221909e-01  1.7161949146118186e-01  1.7444752434651925e-01  1.7491683211777745e-01  1.7353383261131619e-01  1.7070300996894833e-01  1.6676020180191750e-01  1.6199590404312283e-01  1.5667119497727153e-01  1.5102807716784436e-01  1.4529544389687626e-01  1.3969149302129086e-01  1.3442321147071662e-01  1.2968349767263873e-01  1.2564653317818086e-01  1.2246211067515640e-01  1.2024972127176035e-01  1.1909324791401377e-01  1.1903706233576911e-01  1.2008415894000525e-01  1.2219668824880058e-01  1.2529891287762515e-01  1.2928226013535687e-01  1.3401185294585352e-01  1.3933371754375634e-01  1.4508181735933412e-01  1.5108413946646429e-01  1.5716722635442948e-01  1.6315874899050281e-01  1.6888790286049937e-01  1.7418353194330782e-01  1.7886991556051191e-01  1.8276007132670652e-01  1.8564622172988804e-01  1.8728672797999496e-01  1.8738829186614273e-01  1.8558154911271224e-01  1.8138732421969672e-01  1.7416990062010476e-01  1.6307464321360315e-01  1.4695540189113113e-01  1.2431123261368088e-01  9.3373274940912923e-02  5.3728345453551409e-02  3.7152463375566330e-03  1.7861611454444779e-03  2.9761293157236201e-02  5.3944346597463590e-02  7.4227386578965104e-02  8.9472738919652114e-02  1.0024914638470990e-01  1.0721744139750254e-01  1.1106100833513062e-01  1.1236458152571169e-01  1.1161128704942788e-01  1.0919953808723168e-01  1.0546434920799440e-01  1.0069665753998276e-01  9.5158768456730949e-02  8.9095777515373870e-02  8.2743238322853893e-02  7.6331380036859950e-02  7.0086138558971861e-02  6.4227271385115317e-02  5.8963917090977272e-02  5.4488132453662519e-02  5.0967158752277683e-02  4.8535376659819510e-02  4.7287037544938494e-02  4.7270844863784370e-02  4.8487266132969199e-02  5.0889091181459026e-02  5.4385272860584533e-02  5.8847586862811156e-02  6.4119233538497855e-02  7.0024260921130135e-02  7.6376652051931712e-02  8.2988073438939811e-02  8.9673562929882891e-02  9.6254761167769709e-02  1.0256058225777927e-01  1.0842542008375319e-01  1.1368507029086405e-01  1.1817051459404464e-01  1.2169958398348792e-01  1.2406632704565357e-01  1.2502772116716826e-01  1.2428730361637796e-01  1.2147567186618724e-01  1.1612953125261712e-01  1.0767551606093499e-01  9.5434069698723825e-02  7.8741622539883996e-02  5.7022666089520058e-02  3.1394936703047827e-02  1.9974850421436122e-03  4.4548926228644644e-04  1.4965120097041386e-02  2.8554948081369158e-02  4.0737141492622288e-02  5.0210279793555489e-02  5.6844538627481775e-02  6.0790456700245223e-02  6.2353853724500363e-02  6.1865957013712267e-02  5.9640763291143185e-02  5.5963438959892253e-02  5.1092960900803654e-02  4.5269805003281628e-02  3.8724385992143694e-02  3.1684321196060607e-02  2.4379584462247361e-02  1.7045030594216342e-02  9.9199709735962559e-03  3.2446563926495082e-03  -2.7462356097538989e-03  -7.8326785815409448e-03  -1.1820112384848667e-02  -1.4550779539727372e-02  -1.5914091055018495e-02  -1.5854474400230804e-02  -1.4375390521605061e-02  -1.1538729698738303e-02  -7.4595192188098179e-03  -2.2966409662306397e-03  3.7591166402915822e-03  1.0498003330547958e-02  1.7703574916775374e-02  2.5162908033581771e-02  3.2673870314273532e-02  4.0049086512271154e-02  4.7116696662010446e-02  5.3718306671814063e-02  5.9704665396757471e-02  6.4929592202346023e-02  6.9242583712059491e-02  7.2480429527354159e-02  7.4458179192183602e-02  7.4960114895851207e-02  7.3732346401557389e-02  7.0481033720551131e-02  6.4885185475934359e-02  5.6640636021849218e-02  4.5591311156266662e-02  3.1856787674910625e-02  1.6715672830394327e-02  6.6831366695550419e-04  -4.6168749481333257e-04  4.6430070124201467e-03  1.0331099588498904e-02  1.5988513769781332e-02  2.0405340018168103e-02  2.3167788861846422e-02  2.4134223982866732e-02  2.3353510469654157e-02  2.0959286463389584e-02  1.7120275548520265e-02  1.2017140267377014e-02  5.8349039965367219e-03  -1.2367604072240452e-03  -8.9998953833368978e-03  -1.7243896261684353e-02  -2.5742069315130220e-02  -3.4250274112341224e-02  -4.2508533736397250e-02  -5.0246229380558012e-02  -5.7191124913963644e-02  -6.3081942998772414e-02  -6.7683562414578222e-02  -7.0803230486791741e-02  -7.2305653754657626e-02  -7.2124634131587678e-02  -7.0269198271793940e-02  -6.6822945727926658e-02  -6.1936478873894356e-02  -5.5814001826795925e-02  -4.8696166978800824e-02  -4.0841755168313856e-02  -3.2510705863844011e-02  -2.3950452853366076e-02  -1.5386682045058246e-02  -7.0187599410462907e-03  9.8061718060260712e-04  8.4624310444194207e-03  1.5296038976517403e-02  2.1362547207345605e-02  2.6547704435426599e-02  3.0735046963668609e-02  3.3800077606613764e-02  3.5606648169471442e-02  3.6007688705295103e-02  3.4854391675392872e-02  3.2021228174570052e-02  2.7457517546190090e-02  2.1295045345468284e-02  1.3931933529069424e-02  6.5508699408176737e-03  -2.2321270601371841e-04  -1.1343536192170687e-03  -2.7841894074911596e-03  -2.9912683516860193e-03  -2.4723668104604281e-03  -2.2747222683451450e-03  -2.9238490600712323e-03  -4.7123412881601235e-03  -7.7536190851259287e-03  -1.2056256375895682e-02  -1.7566980751305233e-02  -2.4194832602134491e-02  -3.1822148924553484e-02  -4.0307501197624107e-02  -4.9484259878046333e-02  -5.9157378177738917e-02  -6.9100368292151326e-02  -7.9054125472549100e-02  -8.8729055458068098e-02  -9.7811702949875401e-02  -1.0597661889704259e-01  -1.1290345891764451e-01  -1.1829829006252630e-01  -1.2191694604569546e-01  -1.2358728959894678e-01  -1.2322675981269993e-01  -1.2085189021362965e-01  -1.1657766437351685e-01  -1.1060641751782482e-01  -1.0320801523409209e-01  -9.4694662264772633e-02  -8.5394461725290152e-02  -7.5627608729355103e-02  -6.5688050820548793e-02  -5.5831991842071632e-02  -4.6273202586883902e-02  -3.7184053710624561e-02  -2.8700632753029240e-02  -2.0930201843850128e-02  -1.3959444775696644e-02  -7.8622584290863745e-03  -2.7060954616919645e-03  1.4440776771079311e-03  4.5254029424762502e-03  6.4822188383442149e-03  7.2797192492739648e-03  6.9308957026746939e-03  5.5421207560551744e-03  3.3899708824102746e-03  9.7689455862340997e-04  -6.8309881466873475e-04  -8.7684604979654344e-04  -1.6438618853471165e-03  -8.2186431796076355e-03  -1.2836180765931921e-02  -1.6311249770178483e-02  -1.9541816032217517e-02  -2.3090430041103251e-02  -2.7324355340355808e-02  -3.2456517878395180e-02  -3.8594664323313710e-02  -4.5774426578774993e-02  -5.3979719248550370e-02  -6.3152927986191931e-02  -7.3197872297966010e-02  -8.3978153706255554e-02  -9.5313147452923921e-02  -1.0697372570622571e-01  -1.1867979466774420e-01  -1.3010175818541167e-01  -1.4086789975626385e-01  -1.5057919983842286e-01  -1.5883211673038217e-01  -1.6524832795507044e-01  -1.6950854587721417e-01  -1.7138573438659363e-01  -1.7077199072579510e-01  -1.6769360555018450e-01  -1.6231062271701766e-01  -1.5490027152087288e-01  -1.4582707789283425e-01  -1.3550519029949834e-01  -1.2435963735423096e-01  -1.1279262886067670e-01  -1.0115903523416750e-01  -8.9752638971682286e-02  -7.8802456752850400e-02  -6.8476900083389677e-02  -5.8892909443814152e-02  -5.0127294559259607e-02  -4.2228033919924496e-02  -3.5223922324992614e-02  -2.9131475064215980e-02  -2.3958263064979817e-02  -1.9701802067667033e-02  -1.6342748128670086e-02  -1.3830538982926388e-02  -1.2059004272736856e-02  -1.0829833011199028e-02  -9.8001987362583108e-03  -8.4402259763049093e-03  -5.8928702994714179e-03  -1.3644112261525429e-03  -2.0382148571679087e-03  -1.2215179045162353e-02  -2.0123990257033479e-02  -2.6671530966592433e-02  -3.2636265925850012e-02  -3.8588800177149045e-02  -4.4932996203607495e-02  -5.1943830111029606e-02  -5.9799166375787124e-02  -6.8603975327670055e-02  -7.8405655089559434e-02  -8.9201359163174496e-02  -1.0093887788675243e-01  -1.1351276942411490e-01  -1.2675759251569180e-01  -1.4044035958469669e-01  -1.5425473420559360e-01  -1.6781992067791468e-01  -1.8068739709861162e-01  -1.9235830332662934e-01  -2.0231308809149368e-01  -2.1005277875668144e-01  -2.1514815366305765e-01  -2.1728986304550377e-01  -2.1633029324308473e-01  -2.1230789922993690e-01  -2.0544749277402954e-01  -1.9613513208456163e-01  -1.8487224240529276e-01  -1.7221831553249520e-01  -1.5873337529629192e-01  -1.4492997946838507e-01  -1.3124077922177343e-01  -1.1800318766499729e-01  -1.0545899955180489e-01  -9.3764657450173247e-02  -8.3007319795083939e-02  -7.3222498208233400e-02  -6.4410187443660782e-02  -5.6547602034803517e-02  -4.9597549729148427e-02  -4.3511992516981381e-02  -3.8230481899854667e-02  -3.3672996187732555e-02  -2.9726421072763784e-02  -2.6223692421697194e-02  -2.2915043224439414e-02  -1.9432198841920083e-02  -1.5249347816612545e-02  -9.6385349895952311e-03  -1.7345051405023566e-03  -2.3488322289039677e-03  -1.5133210763090257e-02  -2.5469742420893626e-02  -3.4347424077235678e-02  -4.2453432324116740e-02  -5.0356848657963957e-02  -5.8480616762162888e-02  -6.7141169092676325e-02  -7.6568985777896170e-02  -8.6926184726431724e-02  -9.8317098687504517e-02  -1.1079204520952789e-01  -1.2434491205989676e-01  -1.3890550200472859e-01  -1.5432805530674029e-01  -1.7037803288225345e-01  -1.8672015363685779e-01  -2.0291171137375993e-01  -2.1840602929926931e-01  -2.3257101767564758e-01  -2.4472654068006672e-01  -2.5420116509098467e-01  -2.6040389128421398e-01  -2.6290063979247602e-01  -2.6148059326183354e-01  -2.5619641810620364e-01  -2.4736653927098215e-01  -2.3553653189277340e-01  -2.2140740511879975e-01  -2.0574694307313798e-01  -1.8930314458169448e-01  -1.7273559754654330e-01  -1.5657342017631753e-01  -1.4120048051456691e-01  -1.2686267372959228e-01  -1.1368924332359519e-01  -1.0172015403941252e-01  -9.0933261253172484e-02  -8.1267316562526323e-02  -7.2638895134112605e-02  -6.4952753090699436e-02  -5.8105876950376847e-02  -5.1985704631132994e-02  -4.6462877268478774e-02  -4.1378655436019748e-02  -3.6526930126848350e-02  -3.1630886164452011e-02  -2.6317567695578428e-02  -2.0077619385634460e-02  -1.2286058838003482e-02  -2.0192627422821888e-03  -2.5971374034775519e-03  -1.7213865743747760e-02  -2.9294344497523168e-02  -3.9896482570004208e-02  -4.9638836385865526e-02  -5.9086893041269690e-02  -6.8675510302229834e-02  -7.8752225014334723e-02  -8.9590923074479828e-02  -1.0140498167793971e-01  -1.1435409323646531e-01  -1.2854459780162739e-01  -1.4402324455944668e-01  -1.6076460115363161e-01  -1.7865296880606699e-01  -1.9746067547520058e-01  -2.1682613361708766e-01  -2.3623697944818339e-01  -2.5502556779743446e-01  -2.7238527343613700e-01  -2.8741524781154620e-01  -2.9919724869400155e-01  -3.0690035425853912e-01  -3.0989895070143936e-01  -3.0787978838466057e-01  -3.0091010115829486e-01  -2.8944475514428852e-01  -2.7426600352617858e-01  -2.5636916167575946e-01  -2.3682289325306644e-01  -2.1663727578852213e-01  -1.9666562072915056e-01  -1.7755196661203063e-01  -1.5972204434036469e-01  -1.4340623858178445e-01  -1.2867999971234223e-01  -1.1550886466045041e-01  -1.0378925492690962e-01  -9.3380437314002876e-02  -8.4126287467093136e-02  -7.5867460594814529e-02  -6.8445422986215518e-02  -6.1699894019127961e-02  -5.5460948851364933e-02  -4.9536644795476911e-02  -4.3696645083325762e-02  -3.7652074798358380e-02  -3.1036202690889202e-02  -2.3361249536883805e-02  -1.4084760830047232e-02  -2.2409711087244201e-03  -2.7981908171079380e-03  -1.8622855827381837e-02  -3.1890787722857694e-02  -4.3713341178895755e-02  -5.4657413701148266e-02  -6.5285119074955308e-02  -7.6040828210420422e-02  -8.7298570960792687e-02  -9.9371819535307465e-02  -1.1252407495773094e-01  -1.2697321190016730e-01  -1.4288905968589119e-01  -1.6038343868816504e-01  -1.7949199637173421e-01  -2.0014782446277135e-01  -2.2214809998307200e-01  -2.4511716769589065e-01  -2.6847265417112798e-01  -2.9140503320583749e-01  -3.1288445437651347e-01  -3.3170954541043696e-01  -3.4660858371288467e-01  -3.5639176109735998e-01  -3.6013489482811029e-01  -3.5735539939814442e-01  -3.4813061911818888e-01  -3.3311636661170513e-01  -3.1345141137693988e-01  -2.9057120369722372e-01  -2.6598326040169940e-01  -2.4106345173439064e-01  -2.1691619270478724e-01  -1.9431364143105079e-01  -1.7370378862214661e-01  -1.5526347764543458e-01  -1.3897058928073810e-01  -1.2467548949430632e-01  -1.1216016005783538e-01  -1.0118067155657405e-01  -9.1493407870297569e-02  -8.2867773528197158e-02  -7.5088708809076143e-02  -6.7951967619472878e-02  -6.1254362421422494e-02  -5.4780437920677535e-02  -4.8286351204455839e-02  -4.1481164251677194e-02  -3.4010872598985088e-02  -2.5412179383103264e-02  -1.5210405450323396e-02  -2.4157162774534491e-03  -2.9627086757315359e-03  -1.9476140845371876e-02  -3.3465817602891960e-02  -4.6079330280122267e-02  -5.7843939330427419e-02  -6.9318565151329045e-02  -8.0956395456286162e-02  -9.3156115270896817e-02  -1.0626999984315742e-01  -1.2061362825677124e-01  -1.3646924352266493e-01  -1.5408181144804770e-01  -1.7364617070522936e-01  -1.9528344207921300e-01  -2.1900525078836661e-01  -2.4466557651551152e-01  -2.7190277253566719e-01  -3.0007898250942544e-01  -3.2823085915098932e-01  -3.5505301052945426e-01  -3.7894084667996558e-01  -3.9811714997534792e-01  -4.1085082439365145e-01  -4.1574478641019474e-01  -4.1203052702562865e-01  -3.9977916795476359e-01  -3.7994609169380933e-01  -3.5421686228358956e-01  -3.2469610592068582e-01  -2.9353835521747296e-01  -2.6262958070951625e-01  -2.3339092019215493e-01  -2.0671973654750214e-01  -1.8303836091725606e-01  -1.6240220062172409e-01  -1.4462291564929738e-01  -1.2937751603445227e-01  -1.1629019411647105e-01  -1.0498520806651691e-01  -9.5115249462955923e-02  -8.6371725394029639e-02  -7.8483006401399158e-02  -7.1205318999489078e-02  -6.4309430691602637e-02  -5.7565010925314984e-02  -5.0723528132727173e-02  -4.3499712793396393e-02  -3.5557188337944946e-02  -2.6459906918440322e-02  -1.5790924219036842e-02  -2.5553999803631798e-03  -3.0983023773592105e-03  -1.9856315377766071e-02  -3.4167539933737667e-02  -4.7197081155744176e-02  -5.9440449901090646e-02  -7.1452410519971588e-02  -8.3694210103497105e-02  -9.6588090381312927e-02  -1.1052543152789553e-01  -1.2587719681005244e-01  -1.4299807513493931e-01  -1.6222288665424078e-01  -1.8385267395044816e-01  -2.0812709438498364e-01  -2.3517947470217768e-01  -2.6497163720285211e-01  -2.9720839121658305e-01  -3.3123767027633066e-01  -3.6595273552485036e-01  -3.9972728859156215e-01  -4.3042894017534755e-01  -4.5556206887104894e-01  -4.7257383568879219e-01  -4.7930592347900214e-01  -4.7449615419487662e-01  -4.5816538652318189e-01  -4.3172178995334509e-01  -3.9770747747654861e-01  -3.5926392303093690e-01  -3.1951025096247460e-01  -2.8103995069572935e-01  -2.4565429516870058e-01  -2.1433483964423491e-01  -1.8737955786322835e-01  -1.6460809388939557e-01  -1.4556323049855580e-01  -1.2966993448516023e-01  -1.1634162549367716e-01  -1.0503967643098555e-01  -9.5298321823455448e-02  -8.6727188591741500e-02  -7.9001065109861601e-02  -7.1843415685188025e-02  -6.5007499826330653e-02  -5.8257072056875900e-02  -5.1347309867253679e-02  -4.4005644599968315e-02  -3.5917971621935045e-02  -2.6678849610388713e-02  -1.5922649196935659e-02  -2.6689580496224866e-03  -3.2102817690678061e-03  -1.9823708239510560e-02  -3.4104675463304819e-02  -4.7215685418321163e-02  -5.9624893366728458e-02  -7.1880240590419475e-02  -8.4449106413463829e-02  -9.7775423374393225e-02  -1.1228933648129874e-01  -1.2841997047546305e-01  -1.4660242968366952e-01  -1.6727715720957298e-01  -1.9087807443912827e-01  -2.1780426532582198e-01  -2.4836853742826154e-01  -2.8271554706524832e-01  -3.2070383604421793e-01  -3.6175251401611619e-01  -4.0466755365109253e-01  -4.4748703992243383e-01  -4.8741688138495570e-01  -5.2095538009012921e-01  -5.4429857093899758e-01  -5.5404359746787391e-01  -5.4805575669917861e-01  -5.2619817746346476e-01  -4.9057389079238994e-01  -4.4510042579761194e-01  -3.9456064503299448e-01  -3.4352697985688485e-01  -2.9556035719033352e-01  -2.5287428647235238e-01  -2.1641304344396214e-01  -1.8616466308606064e-01  -1.6153036211410840e-01  -1.4163882046683018e-01  -1.2556399416368388e-01  -1.1245031706606348e-01  -1.0156817006386136e-01  -9.2324813793634594e-02  -8.4250929367453251e-02  -7.6976277882036218e-02  -7.0202355950801015e-02  -6.3675963718374418e-02  -5.7165169996170356e-02  -5.0437688393041955e-02  -4.3240744503209215e-02  -3.5287401077869512e-02  -2.6206854464667983e-02  -1.5680999725876082e-02  -2.7631199339168220e-03  -3.3022053277193234e-03  -1.9424314705942691e-02  -3.3360657579076289e-02  -4.6249776413583160e-02  -5.8533867276192822e-02  -7.0749391188165062e-02  -8.3366023842011680e-02  -9.6845572398561022e-02  -1.1165436798836871e-01  -1.2827988771473584e-01  -1.4724291532764366e-01  -1.6910316917922075e-01  -1.9445404839590602e-01  -2.2389943315654609e-01  -2.5800227414971044e-01  -2.9719143627673328e-01  -3.4161166756333222e-01  -3.9090530719997846e-01  -4.4392976449365185e-01  -4.9845014586155934e-01  -5.5090667555734951e-01  -5.9643027029546303e-01  -6.2931932704186422e-01  -6.4410851552624060e-01  -6.3708301906701992e-01  -6.0769522901697137e-01  -5.5913210475018083e-01  -4.9758495467389363e-01  -4.3049848099014337e-01  -3.6465316157732292e-01  -3.0489106031411256e-01  -2.5376857587556911e-01  -2.1191309218062901e-01  -1.7867648161361643e-01  -1.5276635476248454e-01  -1.3270668893254517e-01  -1.1710902326809672e-01  -1.0479603742844720e-01  -9.4831438541678151e-02  -8.6500145494081124e-02  -7.9267769315993261e-02  -7.2735722322994231e-02  -6.6599710586164693e-