<?xml version="1.0"?>
<VTKFile type="UnstructuredGrid"  version="0.1"  >
<UnstructuredGrid>
<Piece  NumberOfPoints="5101" NumberOfCells="10000">
<Points>
<DataArray  type="Float64"  NumberOfComponents="3"  format="ascii">0 0 0  0.2 0 0  0.4 0 0  0.6 0 0  0.8 0 0  1 0 0  1.2 0 0  1.4 0 0  1.6 0 0  1.8 0 0  2 0 0  2.2 0 0  2.4 0 0  2.6 0 0  2.8 0 0  3 0 0  3.2 0 0  3.4 0 0  3.6 0 0  3.8 0 0  4 0 0  4.2 0 0  4.4 0 0  4.6 0 0  4.8 0 0  5 0 0  5.2 0 0  5.4 0 0  5.6 0 0  5.8 0 0  6 0 0  6.2 0 0  6.4 0 0  6.6 0 0  6.8 0 0  7 0 0  7.2 0 0  7.4 0 0  7.6 0 0  7.8 0 0  8 0 0  8.199999999999999 0 0  8.4 0 0  8.6 0 0  8.800000000000001 0 0  9 0 0  9.199999999999999 0 0  9.4 0 0  9.6 0 0  9.800000000000001 0 0  10 0 0  0 0.2 0  0.2 0.2 0  0.4 0.2 0  0.6 0.2 0  0.8 0.2 0  1 0.2 0  1.2 0.2 0  1.4 0.2 0  1.6 0.2 0  1.8 0.2 0  2 0.2 0  2.2 0.2 0  2.4 0.2 0  2.6 0.2 0  2.8 0.2 0  3 0.2 0  3.2 0.2 0  3.4 0.2 0  3.6 0.2 0  3.8 0.2 0  4 0.2 0  4.2 0.2 0  4.4 0.2 0  4.6 0.2 0  4.8 0.2 0  5 0.2 0  5.2 0.2 0  5.4 0.2 0  5.6 0.2 0  5.8 0.2 0  6 0.2 0  6.2 0.2 0  6.4 0.2 0  6.6 0.2 0  6.8 0.2 0  7 0.2 0  7.2 0.2 0  7.4 0.2 0  7.6 0.2 0  7.8 0.2 0  8 0.2 0  8.199999999999999 0.2 0  8.4 0.2 0  8.6 0.2 0  8.800000000000001 0.2 0  9 0.2 0  9.199999999999999 0.2 0  9.4 0.2 0  9.6 0.2 0  9.800000000000001 0.2 0  10 0.2 0  0 0.4 0  0.2 0.4 0  0.4 0.4 0  0.6 0.4 0  0.8 0.4 0  1 0.4 0  1.2 0.4 0  1.4 0.4 0  1.6 0.4 0  1.8 0.4 0  2 0.4 0  2.2 0.4 0  2.4 0.4 0  2.6 0.4 0  2.8 0.4 0  3 0.4 0  3.2 0.4 0  3.4 0.4 0  3.6 0.4 0  3.8 0.4 0  4 0.4 0  4.2 0.4 0  4.4 0.4 0  4.6 0.4 0  4.8 0.4 0  5 0.4 0  5.2 0.4 0  5.4 0.4 0  5.6 0.4 0  5.8 0.4 0  6 0.4 0  6.2 0.4 0  6.4 0.4 0  6.6 0.4 0  6.8 0.4 0  7 0.4 0  7.2 0.4 0  7.4 0.4 0  7.6 0.4 0  7.8 0.4 0  8 0.4 0  8.199999999999999 0.4 0  8.4 0.4 0  8.6 0.4 0  8.800000000000001 0.4 0  9 0.4 0  9.199999999999999 0.4 0  9.4 0.4 0  9.6 0.4 0  9.800000000000001 0.4 0  10 0.4 0  0 0.6 0  0.2 0.6 0  0.4 0.6 0  0.6 0.6 0  0.8 0.6 0  1 0.6 0  1.2 0.6 0  1.4 0.6 0  1.6 0.6 0  1.8 0.6 0  2 0.6 0  2.2 0.6 0  2.4 0.6 0  2.6 0.6 0  2.8 0.6 0  3 0.6 0  3.2 0.6 0  3.4 0.6 0  3.6 0.6 0  3.8 0.6 0  4 0.6 0  4.2 0.6 0  4.4 0.6 0  4.6 0.6 0  4.8 0.6 0  5 0.6 0  5.2 0.6 0  5.4 0.6 0  5.6 0.6 0  5.8 0.6 0  6 0.6 0  6.2 0.6 0  6.4 0.6 0  6.6 0.6 0  6.8 0.6 0  7 0.6 0  7.2 0.6 0  7.4 0.6 0  7.6 0.6 0  7.8 0.6 0  8 0.6 0  8.199999999999999 0.6 0  8.4 0.6 0  8.6 0.6 0  8.800000000000001 0.6 0  9 0.6 0  9.199999999999999 0.6 0  9.4 0.6 0  9.6 0.6 0  9.800000000000001 0.6 0  10 0.6 0  0 0.8 0  0.2 0.8 0  0.4 0.8 0  0.6 0.8 0  0.8 0.8 0  1 0.8 0  1.2 0.8 0  1.4 0.8 0  1.6 0.8 0  1.8 0.8 0  2 0.8 0  2.2 0.8 0  2.4 0.8 0  2.6 0.8 0  2.8 0.8 0  3 0.8 0  3.2 0.8 0  3.4 0.8 0  3.6 0.8 0  3.8 0.8 0  4 0.8 0  4.2 0.8 0  4.4 0.8 0  4.6 0.8 0  4.8 0.8 0  5 0.8 0  5.2 0.8 0  5.4 0.8 0  5.6 0.8 0  5.8 0.8 0  6 0.8 0  6.2 0.8 0  6.4 0.8 0  6.6 0.8 0  6.8 0.8 0  7 0.8 0  7.2 0.8 0  7.4 0.8 0  7.6 0.8 0  7.8 0.8 0  8 0.8 0  8.199999999999999 0.8 0  8.4 0.8 0  8.6 0.8 0  8.800000000000001 0.8 0  9 0.8 0  9.199999999999999 0.8 0  9.4 0.8 0  9.6 0.8 0  9.800000000000001 0.8 0  10 0.8 0  0 1 0  0.2 1 0  0.4 1 0  0.6 1 0  0.8 1 0  1 1 0  1.2 1 0  1.4 1 0  1.6 1 0  1.8 1 0  2 1 0  2.2 1 0  2.4 1 0  2.6 1 0  2.8 1 0  3 1 0  3.2 1 0  3.4 1 0  3.6 1 0  3.8 1 0  4 1 0  4.2 1 0  4.4 1 0  4.6 1 0  4.8 1 0  5 1 0  5.2 1 0  5.4 1 0  5.6 1 0  5.8 1 0  6 1 0  6.2 1 0  6.4 1 0  6.6 1 0  6.8 1 0  7 1 0  7.2 1 0  7.4 1 0  7.6 1 0  7.8 1 0  8 1 0  8.199999999999999 1 0  8.4 1 0  8.6 1 0  8.800000000000001 1 0  9 1 0  9.199999999999999 1 0  9.4 1 0  9.6 1 0  9.800000000000001 1 0  10 1 0  0 1.2 0  0.2 1.2 0  0.4 1.2 0  0.6 1.2 0  0.8 1.2 0  1 1.2 0  1.2 1.2 0  1.4 1.2 0  1.6 1.2 0  1.8 1.2 0  2 1.2 0  2.2 1.2 0  2.4 1.2 0  2.6 1.2 0  2.8 1.2 0  3 1.2 0  3.2 1.2 0  3.4 1.2 0  3.6 1.2 0  3.8 1.2 0  4 1.2 0  4.2 1.2 0  4.4 1.2 0  4.6 1.2 0  4.8 1.2 0  5 1.2 0  5.2 1.2 0  5.4 1.2 0  5.6 1.2 0  5.8 1.2 0  6 1.2 0  6.2 1.2 0  6.4 1.2 0  6.6 1.2 0  6.8 1.2 0  7 1.2 0  7.2 1.2 0  7.4 1.2 0  7.6 1.2 0  7.8 1.2 0  8 1.2 0  8.199999999999999 1.2 0  8.4 1.2 0  8.6 1.2 0  8.800000000000001 1.2 0  9 1.2 0  9.199999999999999 1.2 0  9.4 1.2 0  9.6 1.2 0  9.800000000000001 1.2 0  10 1.2 0  0 1.4 0  0.2 1.4 0  0.4 1.4 0  0.6 1.4 0  0.8 1.4 0  1 1.4 0  1.2 1.4 0  1.4 1.4 0  1.6 1.4 0  1.8 1.4 0  2 1.4 0  2.2 1.4 0  2.4 1.4 0  2.6 1.4 0  2.8 1.4 0  3 1.4 0  3.2 1.4 0  3.4 1.4 0  3.6 1.4 0  3.8 1.4 0  4 1.4 0  4.2 1.4 0  4.4 1.4 0  4.6 1.4 0  4.8 1.4 0  5 1.4 0  5.2 1.4 0  5.4 1.4 0  5.6 1.4 0  5.8 1.4 0  6 1.4 0  6.2 1.4 0  6.4 1.4 0  6.6 1.4 0  6.8 1.4 0  7 1.4 0  7.2 1.4 0  7.4 1.4 0  7.6 1.4 0  7.8 1.4 0  8 1.4 0  8.199999999999999 1.4 0  8.4 1.4 0  8.6 1.4 0  8.800000000000001 1.4 0  9 1.4 0  9.199999999999999 1.4 0  9.4 1.4 0  9.6 1.4 0  9.800000000000001 1.4 0  10 1.4 0  0 1.6 0  0.2 1.6 0  0.4 1.6 0  0.6 1.6 0  0.8 1.6 0  1 1.6 0  1.2 1.6 0  1.4 1.6 0  1.6 1.6 0  1.8 1.6 0  2 1.6 0  2.2 1.6 0  2.4 1.6 0  2.6 1.6 0  2.8 1.6 0  3 1.6 0  3.2 1.6 0  3.4 1.6 0  3.6 1.6 0  3.8 1.6 0  4 1.6 0  4.2 1.6 0  4.4 1.6 0  4.6 1.6 0  4.8 1.6 0  5 1.6 0  5.2 1.6 0  5.4 1.6 0  5.6 1.6 0  5.8 1.6 0  6 1.6 0  6.2 1.6 0  6.4 1.6 0  6.6 1.6 0  6.8 1.6 0  7 1.6 0  7.2 1.6 0  7.4 1.6 0  7.6 1.6 0  7.8 1.6 0  8 1.6 0  8.199999999999999 1.6 0  8.4 1.6 0  8.6 1.6 0  8.800000000000001 1.6 0  9 1.6 0  9.199999999999999 1.6 0  9.4 1.6 0  9.6 1.6 0  9.800000000000001 1.6 0  10 1.6 0  0 1.8 0  0.2 1.8 0  0.4 1.8 0  0.6 1.8 0  0.8 1.8 0  1 1.8 0  1.2 1.8 0  1.4 1.8 0  1.6 1.8 0  1.8 1.8 0  2 1.8 0  2.2 1.8 0  2.4 1.8 0  2.6 1.8 0  2.8 1.8 0  3 1.8 0  3.2 1.8 0  3.4 1.8 0  3.6 1.8 0  3.8 1.8 0  4 1.8 0  4.2 1.8 0  4.4 1.8 0  4.6 1.8 0  4.8 1.8 0  5 1.8 0  5.2 1.8 0  5.4 1.8 0  5.6 1.8 0  5.8 1.8 0  6 1.8 0  6.2 1.8 0  6.4 1.8 0  6.6 1.8 0  6.8 1.8 0  7 1.8 0  7.2 1.8 0  7.4 1.8 0  7.6 1.8 0  7.8 1.8 0  8 1.8 0  8.199999999999999 1.8 0  8.4 1.8 0  8.6 1.8 0  8.800000000000001 1.8 0  9 1.8 0  9.199999999999999 1.8 0  9.4 1.8 0  9.6 1.8 0  9.800000000000001 1.8 0  10 1.8 0  0 2 0  0.2 2 0  0.4 2 0  0.6 2 0  0.8 2 0  1 2 0  1.2 2 0  1.4 2 0  1.6 2 0  1.8 2 0  2 2 0  2.2 2 0  2.4 2 0  2.6 2 0  2.8 2 0  3 2 0  3.2 2 0  3.4 2 0  3.6 2 0  3.8 2 0  4 2 0  4.2 2 0  4.4 2 0  4.6 2 0  4.8 2 0  5 2 0  5.2 2 0  5.4 2 0  5.6 2 0  5.8 2 0  6 2 0  6.2 2 0  6.4 2 0  6.6 2 0  6.8 2 0  7 2 0  7.2 2 0  7.4 2 0  7.6 2 0  7.8 2 0  8 2 0  8.199999999999999 2 0  8.4 2 0  8.6 2 0  8.800000000000001 2 0  9 2 0  9.199999999999999 2 0  9.4 2 0  9.6 2 0  9.800000000000001 2 0  10 2 0  0 2.2 0  0.2 2.2 0  0.4 2.2 0  0.6 2.2 0  0.8 2.2 0  1 2.2 0  1.2 2.2 0  1.4 2.2 0  1.6 2.2 0  1.8 2.2 0  2 2.2 0  2.2 2.2 0  2.4 2.2 0  2.6 2.2 0  2.8 2.2 0  3 2.2 0  3.2 2.2 0  3.4 2.2 0  3.6 2.2 0  3.8 2.2 0  4 2.2 0  4.2 2.2 0  4.4 2.2 0  4.6 2.2 0  4.8 2.2 0  5 2.2 0  5.2 2.2 0  5.4 2.2 0  5.6 2.2 0  5.8 2.2 0  6 2.2 0  6.2 2.2 0  6.4 2.2 0  6.6 2.2 0  6.8 2.2 0  7 2.2 0  7.2 2.2 0  7.4 2.2 0  7.6 2.2 0  7.8 2.2 0  8 2.2 0  8.199999999999999 2.2 0  8.4 2.2 0  8.6 2.2 0  8.800000000000001 2.2 0  9 2.2 0  9.199999999999999 2.2 0  9.4 2.2 0  9.6 2.2 0  9.800000000000001 2.2 0  10 2.2 0  0 2.4 0  0.2 2.4 0  0.4 2.4 0  0.6 2.4 0  0.8 2.4 0  1 2.4 0  1.2 2.4 0  1.4 2.4 0  1.6 2.4 0  1.8 2.4 0  2 2.4 0  2.2 2.4 0  2.4 2.4 0  2.6 2.4 0  2.8 2.4 0  3 2.4 0  3.2 2.4 0  3.4 2.4 0  3.6 2.4 0  3.8 2.4 0  4 2.4 0  4.2 2.4 0  4.4 2.4 0  4.6 2.4 0  4.8 2.4 0  5 2.4 0  5.2 2.4 0  5.4 2.4 0  5.6 2.4 0  5.8 2.4 0  6 2.4 0  6.2 2.4 0  6.4 2.4 0  6.6 2.4 0  6.8 2.4 0  7 2.4 0  7.2 2.4 0  7.4 2.4 0  7.6 2.4 0  7.8 2.4 0  8 2.4 0  8.199999999999999 2.4 0  8.4 2.4 0  8.6 2.4 0  8.800000000000001 2.4 0  9 2.4 0  9.199999999999999 2.4 0  9.4 2.4 0  9.6 2.4 0  9.800000000000001 2.4 0  10 2.4 0  0 2.6 0  0.2 2.6 0  0.4 2.6 0  0.6 2.6 0  0.8 2.6 0  1 2.6 0  1.2 2.6 0  1.4 2.6 0  1.6 2.6 0  1.8 2.6 0  2 2.6 0  2.2 2.6 0  2.4 2.6 0  2.6 2.6 0  2.8 2.6 0  3 2.6 0  3.2 2.6 0  3.4 2.6 0  3.6 2.6 0  3.8 2.6 0  4 2.6 0  4.2 2.6 0  4.4 2.6 0  4.6 2.6 0  4.8 2.6 0  5 2.6 0  5.2 2.6 0  5.4 2.6 0  5.6 2.6 0  5.8 2.6 0  6 2.6 0  6.2 2.6 0  6.4 2.6 0  6.6 2.6 0  6.8 2.6 0  7 2.6 0  7.2 2.6 0  7.4 2.6 0  7.6 2.6 0  7.8 2.6 0  8 2.6 0  8.199999999999999 2.6 0  8.4 2.6 0  8.6 2.6 0  8.800000000000001 2.6 0  9 2.6 0  9.199999999999999 2.6 0  9.4 2.6 0  9.6 2.6 0  9.800000000000001 2.6 0  10 2.6 0  0 2.8 0  0.2 2.8 0  0.4 2.8 0  0.6 2.8 0  0.8 2.8 0  1 2.8 0  1.2 2.8 0  1.4 2.8 0  1.6 2.8 0  1.8 2.8 0  2 2.8 0  2.2 2.8 0  2.4 2.8 0  2.6 2.8 0  2.8 2.8 0  3 2.8 0  3.2 2.8 0  3.4 2.8 0  3.6 2.8 0  3.8 2.8 0  4 2.8 0  4.2 2.8 0  4.4 2.8 0  4.6 2.8 0  4.8 2.8 0  5 2.8 0  5.2 2.8 0  5.4 2.8 0  5.6 2.8 0  5.8 2.8 0  6 2.8 0  6.2 2.8 0  6.4 2.8 0  6.6 2.8 0  6.8 2.8 0  7 2.8 0  7.2 2.8 0  7.4 2.8 0  7.6 2.8 0  7.8 2.8 0  8 2.8 0  8.199999999999999 2.8 0  8.4 2.8 0  8.6 2.8 0  8.800000000000001 2.8 0  9 2.8 0  9.199999999999999 2.8 0  9.4 2.8 0  9.6 2.8 0  9.800000000000001 2.8 0  10 2.8 0  0 3 0  0.2 3 0  0.4 3 0  0.6 3 0  0.8 3 0  1 3 0  1.2 3 0  1.4 3 0  1.6 3 0  1.8 3 0  2 3 0  2.2 3 0  2.4 3 0  2.6 3 0  2.8 3 0  3 3 0  3.2 3 0  3.4 3 0  3.6 3 0  3.8 3 0  4 3 0  4.2 3 0  4.4 3 0  4.6 3 0  4.8 3 0  5 3 0  5.2 3 0  5.4 3 0  5.6 3 0  5.8 3 0  6 3 0  6.2 3 0  6.4 3 0  6.6 3 0  6.8 3 0  7 3 0  7.2 3 0  7.4 3 0  7.6 3 0  7.8 3 0  8 3 0  8.199999999999999 3 0  8.4 3 0  8.6 3 0  8.800000000000001 3 0  9 3 0  9.199999999999999 3 0  9.4 3 0  9.6 3 0  9.800000000000001 3 0  10 3 0  0 3.2 0  0.2 3.2 0  0.4 3.2 0  0.6 3.2 0  0.8 3.2 0  1 3.2 0  1.2 3.2 0  1.4 3.2 0  1.6 3.2 0  1.8 3.2 0  2 3.2 0  2.2 3.2 0  2.4 3.2 0  2.6 3.2 0  2.8 3.2 0  3 3.2 0  3.2 3.2 0  3.4 3.2 0  3.6 3.2 0  3.8 3.2 0  4 3.2 0  4.2 3.2 0  4.4 3.2 0  4.6 3.2 0  4.8 3.2 0  5 3.2 0  5.2 3.2 0  5.4 3.2 0  5.6 3.2 0  5.8 3.2 0  6 3.2 0  6.2 3.2 0  6.4 3.2 0  6.6 3.2 0  6.8 3.2 0  7 3.2 0  7.2 3.2 0  7.4 3.2 0  7.6 3.2 0  7.8 3.2 0  8 3.2 0  8.199999999999999 3.2 0  8.4 3.2 0  8.6 3.2 0  8.800000000000001 3.2 0  9 3.2 0  9.199999999999999 3.2 0  9.4 3.2 0  9.6 3.2 0  9.800000000000001 3.2 0  10 3.2 0  0 3.4 0  0.2 3.4 0  0.4 3.4 0  0.6 3.4 0  0.8 3.4 0  1 
[...]
<PointData  Scalars="f_11"> 
<DataArray  type="Float64"  Name="f_11"  format="ascii">3.9253221448263638e+00  3.9246350456043593e+00  3.9183503158325803e+00  3.9080796588884086e+00  3.8942194851397827e+00  3.8770932921969781e+00  3.8569576726325443e+00  3.8340364564818543e+00  3.8085264238786070e+00  3.7805999146770963e+00  3.7504070690863704e+00  3.7180791296540003e+00  3.6837329077117800e+00  3.6474760825735051e+00  3.6094128847585103e+00  3.5696497162376364e+00  3.5283003067264112e+00  3.4854900643292632e+00  3.4413593419424480e+00  3.3960654087104758e+00  3.3497829929136773e+00  3.3027033523335878e+00  3.2550319299493431e+00  3.2069847611991835e+00  3.1587839036395766e+00  3.1106522473340155e+00  3.0628081213879623e+00  3.0154601287504956e+00  2.9688026139113619e+00  2.9230121001468636e+00  2.8782449352180612e+00  2.8346362722748997e+00  2.7923004027411968e+00  2.7513323643091701e+00  2.7118106788152261e+00  2.6738010340876737e+00  2.6373607068631797e+00  2.6025435216812918e+00  2.5694051418361945e+00  2.5380084817522217e+00  2.5084290076578846e+00  2.4807596544824362e+00  2.4551150438254505e+00  2.4316346759832941e+00  2.4104848672765966e+00  2.3918596153521388e+00  2.3759818753575179e+00  2.3631080128472588e+00  2.3535607134547658e+00  2.3477336023108286e+00  2.3472369270682920e+00  3.9259633481833824e+00  3.9252768711736010e+00  3.9196643503296955e+00  3.9097189011725102e+00  3.8961179456647437e+00  3.8791784247979333e+00  3.8591831472175100e+00  3.8363655675462089e+00  3.8109282054387146e+00  3.7830464722725563e+00  3.7528719103526926e+00  3.7205361870949618e+00  3.6861559812713418e+00  3.6498385732203196e+00  3.6116877517857247e+00  3.5718096239370993e+00  3.5303179420667896e+00  3.4873386105923116e+00  3.4430130875376799e+00  3.3975004588060682e+00  3.3509780374512386e+00  3.3036404310659866e+00  3.2556971269663313e+00  3.2073687609992869e+00  3.1588823498801504e+00  3.1104658637710747e+00  3.0623425799428849e+00  3.0147256781087770e+00  2.9678135086954480e+00  2.9217858909392365e+00  2.8768016903876523e+00  2.8329978026406923e+00  2.7904895507559613e+00  2.7493724035317459e+00  2.7097248506795948e+00  2.6716122310462374e+00  2.6350912968566242e+00  2.6002153005791175e+00  2.5670393991683773e+00  2.5356261714681736e+00  2.5060510308085919e+00  2.4784072867010014e+00  2.4528105808648943e+00  2.4294024368273037e+00  2.4083528405377148e+00  2.3898620691950052e+00  2.3741631664486387e+00  2.3615390957162834e+00  2.3523063538205449e+00  2.3471399886629412e+00  2.3466290507705256e+00  3.9321367820498940e+00  3.9307760412844699e+00  3.9251607187785948e+00  3.9154066694463419e+00  3.9019764831739963e+00  3.8851868491473822e+00  3.8653087952636600e+00  3.8425729912087618e+00  3.8171783066549918e+00  3.7892957110574366e+00  3.7590718495137492e+00  3.7266333351246552e+00  3.6920919565841781e+00  3.6555505768917875e+00  3.6171093532297087e+00  3.5768718773770649e+00  3.5349508493061848e+00  3.4914729263646924e+00  3.4465824293384077e+00  3.4004436382485665e+00  3.3532414822214869e+00  3.3051805248348409e+00  3.2564822691508084e+00  3.2073809476006048e+00  3.1581181055511025e+00  3.1089364128618664e+00  3.0600732232236814e+00  3.0117544294878567e+00  2.9641891272347589e+00  2.9175655035759660e+00  2.8720482303338382e+00  2.8277774845146544e+00  2.7848695700720549e+00  2.7434189944392875e+00  2.7035017734343332e+00  2.6651797008044609e+00  2.6285053166183916e+00  2.5935273285755511e+00  2.5602962664467359e+00  2.5288701681533534e+00  2.4993200972839067e+00  2.4717352756693001e+00  2.4462275942939145e+00  2.4229352756935558e+00  2.4020255788860494e+00  2.3836968306643227e+00  2.3681808806157076e+00  2.3557503471768286e+00  2.3467228227681907e+00  2.3415596333578796e+00  2.3403758362124654e+00  3.9422271112027878e+00  3.9405374911872180e+00  3.9347213108971797e+00  3.9249595279207954e+00  3.9115847991237560e+00  3.8948665398363249e+00  3.8750496289251144e+00  3.8523478038000682e+00  3.8269463636592946e+00  3.7990040832810603e+00  3.7686561589926613e+00  3.7360184321765275e+00  3.7011927512752303e+00  3.6642731585385238e+00  3.6253525047830046e+00  3.5845290761637911e+00  3.5419128196145384e+00  3.4976307630026824e+00  3.4518312432882112e+00  3.4046865911955164e+00  3.3563939872403168e+00  3.3071743117482644e+00  3.2572689630980802e+00  3.2069348044373118e+00  3.1564375975834191e+00  3.1060444622013077e+00  3.0560160244247396e+00  3.0065989641453998e+00  2.9580196215728702e+00  2.9104791885103789e+00  2.8641508138745815e+00  2.8191787338561953e+00  2.7756793339142427e+00  2.7337438934124738e+00  2.6934426703996976e+00  2.6548299539641436e+00  2.6179497317489404e+00  2.5828416699305414e+00  2.5495471598721018e+00  2.5181152306958499e+00  2.4886081479248139e+00  2.4611065122612654e+00  2.4357136485996573e+00  2.4125590591376804e+00  2.3918007566865080e+00  2.3736264293986307e+00  2.3582537394965692e+00  2.3459316121707245e+00  2.3369324809673904e+00  2.3315896529842184e+00  2.3300849304504201e+00  3.9558360617218207e+00  3.9538820375604420e+00  3.9478817408338096e+00  3.9380427697675402e+00  3.9246527997456333e+00  3.9079477775882769e+00  3.8881441778014865e+00  3.8654328517972960e+00  3.8399790962391851e+00  3.8119233314919891e+00  3.7813835260813748e+00  3.7484592996501505e+00  3.7132374295807908e+00  3.6757983893910158e+00  3.6362235020116627e+00  3.5946022724320232e+00  3.5510394462585255e+00  3.5056613185024128e+00  3.4586207999038519e+00  3.4101007553990459e+00  3.3603151837180278e+00  3.3095079277627999e+00  3.2579488000255927e+00  3.2059272652029884e+00  3.1537441114658269e+00  3.1017018130456133e+00  3.0500944835666361e+00  2.9991983945171707e+00  2.9492639635129527e+00  2.9005099131503251e+00  2.8531200056308523e+00  2.8072424327876968e+00  2.7629916488030704e+00  2.7204522212410791e+00  2.6796841667912483e+00  2.6407292265611462e+00  2.6036175972962403e+00  2.5683747354335384e+00  2.5350279566042944e+00  2.5036126374925742e+00  2.4741778739366791e+00  2.4467914547071099e+00  2.4215439823550886e+00  2.3985519316555619e+00  2.3779594203839358e+00  2.3599385098099090e+00  2.3446880170341315e+00  2.3324319999378922e+00  2.3234123264529973e+00  2.3179196064613152e+00  2.3161633575580525e+00  3.9726375908874352e+00  3.9704901049912018e+00  3.9643224809199746e+00  3.9543837690541341e+00  3.9409407834931862e+00  3.9242098010554480e+00  3.9043829615782917e+00  3.8816268349053535e+00  3.8560829576727613e+00  3.8278686564181883e+00  3.7970794990451973e+00  3.7637935080215499e+00  3.7280769472286779e+00  3.6899913604169114e+00  3.6496014743621745e+00  3.6069835321730452e+00  3.5622335628403601e+00  3.5154750188484902e+00  3.4668651403721866e+00  3.4165993623669264e+00  3.3649131073021619e+00  3.3120804363506546e+00  3.2584092848699253e+00  3.2042333746907410e+00  3.1499013303662191e+00  3.0957639502482146e+00  3.0421609010235109e+00  2.9894082328441458e+00  2.9377880088932637e+00  2.8875410242060804e+00  2.8388631260002137e+00  2.7919051471590355e+00  2.7467760310626561e+00  2.7035484342369243e+00  2.6622659712606755e+00  2.6229512971273095e+00  2.5856143587965419e+00  2.5502603322941053e+00  2.5168969424490006e+00  2.4855410025666433e+00  2.4562240925785055e+00  2.4289973148466735e+00  2.4039350395709445e+00  2.3811375031933761e+00  2.3607320983390752e+00  2.3428732530301777e+00  2.3277410631707096e+00  2.3155400225473950e+00  2.3064961248791738e+00  2.3008819256094197e+00  2.2989495695132462e+00  3.9923718796925041e+00  3.9900755479594419e+00  3.9837688661439268e+00  3.9737335069698929e+00  3.9602274113255196e+00  3.9434546332406573e+00  3.9235870287198180e+00  3.9007672645084770e+00  3.8751110446516224e+00  3.8467089705500861e+00  3.8156295586692268e+00  3.7819238700142890e+00  3.7456317850979324e+00  3.7067897508700094e+00  3.6654397080398384e+00  3.6216388048896477e+00  3.5754693785310798e+00  3.5270485298917365e+00  3.4765364549482620e+00  3.4241425657373266e+00  3.3701284007499432e+00  3.3148064481534121e+00  3.2585343305517851e+00  3.2017043264247240e+00  3.1447288680240235e+00  3.0880233323163302e+00  3.0319879677092474e+00  2.9769910250359493e+00  2.9233550058121378e+00  2.8713474285141762e+00  2.8211767709468396e+00  2.7729934585379112e+00  2.7268951139012194e+00  2.6829348804855981e+00  2.6411315146205645e+00  2.6014800609644313e+00  2.5639621964905750e+00  2.5285556495070987e+00  2.4952423932709844e+00  2.4640155301179756e+00  2.4348849043959064e+00  2.4078815182375348e+00  2.3830607984574148e+00  2.3605047154339167e+00  2.3403227440991019e+00  2.3226517645076181e+00  2.3076553509782465e+00  2.2955239389833708e+00  2.2864761641397036e+00  2.2807792241219538e+00  2.2787193231329064e+00  4.0148111837082210e+00  4.0124008504597901e+00  4.0059857849619451e+00  3.9958731767807185e+00  3.9823158623113484e+00  3.9655085252896090e+00  3.9456049652071186e+00  3.9227242924130583e+00  3.8969548840569006e+00  3.8683575354589963e+00  3.8369693058570120e+00  3.8028087660787242e+00  3.7658829348578702e+00  3.7261959405984757e+00  3.6837592763478040e+00  3.6386033489921163e+00  3.5907898125545250e+00  3.5404239068150365e+00  3.4876657193518130e+00  3.4327390126233372e+00  3.3759361025686956e+00  3.3176173522197776e+00  3.2582042456426055e+00  3.1981657619574326e+00  3.1379987965659271e+00  3.0782044768117705e+00  3.0192631096616078e+00  2.9616109049806774e+00  2.9056213825582122e+00  2.8515935305125413e+00  2.7997475638584528e+00  2.7502278667474314e+00  2.7031117017127206e+00  2.6584217218482165e+00  2.6161402528624182e+00  2.5762236149046371e+00  2.5386152584742145e+00  2.5032570282316655e+00  2.4700983240495633e+00  2.4391032412765488e+00  2.4102559346015515e+00  2.3835644891536329e+00  2.3590635447350152e+00  2.3368158616158672e+00  2.3169130073879658e+00  2.2994754667006232e+00  2.2846528161788293e+00  2.2726253720945384e+00  2.2636085259012444e+00  2.2578687505555726e+00  2.2557196028225421e+00  4.0397541373821459e+00  4.0372587332306829e+00  4.0307691566225436e+00  4.0206115243829954e+00  4.0070338167661061e+00  3.9902214791615300e+00  3.9703107352898099e+00  3.9473968288543984e+00  3.9215392671080198e+00  3.8927660775193615e+00  3.8610784368915887e+00  3.8264565457433801e+00  3.7888672762153326e+00  3.7482738795866393e+00  3.7046478459791152e+00  3.6579827862808432e+00  3.6083098985621764e+00  3.5557141629904030e+00  3.5003499007140997e+00  3.4424538130503493e+00  3.3823532318259448e+00  3.3204672517427833e+00  3.2572988692365099e+00  3.1934173188707460e+00  3.1294313957774276e+00  3.0659563681401840e+00  3.0035786223704011e+00  2.9428229314433527e+00  2.8841268810112828e+00  2.8278255795764942e+00  2.7741477354815838e+00  2.7232221156226930e+00  2.6750918601426994e+00  2.6297334093899742e+00  2.5870768905676247e+00  2.5470254721562333e+00  2.5094721030818770e+00  2.4743129328638558e+00  2.4414573880653516e+00  2.4108353001516312e+00  2.3824016622165924e+00  2.3561396018475147e+00  2.3320620735996025e+00  2.3102126753803272e+00  2.2906659522020725e+00  2.2735276401658853e+00  2.2589355635258985e+00  2.2470623709757280e+00  2.2381217826129807e+00  2.2323807854465336e+00  2.2301741891250968e+00  4.0670231843128946e+00  4.0644683699124053e+00  4.0579420808905553e+00  4.0477829922898581e+00  4.0342328447198046e+00  4.0174665011420334e+00  3.9976019076035527e+00  3.9747094854208589e+00  3.9488180917762894e+00  3.9199199527482835e+00  3.8879757796155734e+00  3.8529210576888140e+00  3.8146742685109452e+00  3.7731476201180367e+00  3.7282606833353853e+00  3.6799570818225043e+00  3.6282239847899396e+00  3.5731135524019235e+00  3.5147646866983302e+00  3.4534225360158022e+00  3.3894523963810150e+00  3.3233442709059262e+00  3.2557047553284502e+00  3.1872343800141620e+00  3.1186910244791868e+00  3.0508430577556216e+00  2.9844185736507978e+00  2.9200585019563654e+00  2.8582808449505519e+00  2.7994608762201465e+00  2.7438286348329792e+00  2.6914816070005729e+00  2.6424081046169934e+00  2.5965159798350519e+00  2.5536618145442986e+00  2.5136770703849809e+00  2.4763892797104665e+00  2.4416377488834904e+00  2.4092842087508393e+00  2.3792193560769492e+00  2.3513663746902194e+00  2.3256824391877480e+00  2.3021590152320832e+00  2.2808215819572077e+00  2.2617292895974401e+00  2.2449750857155593e+00  2.2306869983988507e+00  2.2190315007578638e+00  2.2102208766022877e+00  2.2045223192312102e+00  2.2022860733731302e+00  4.0964623958213862e+00  4.0938722097581017e+00  4.0873513304763929e+00  4.0772448510135995e+00  4.0637860699314485e+00  4.0471372514053119e+00  4.0273967515736544e+00  4.0046088556460013e+00  3.9787698693169156e+00  3.9498331696387385e+00  3.9177143156232375e+00  3.8822973116828519e+00  3.8434430245569247e+00  3.8010006699216712e+00  3.7548231804964782e+00  3.7047870433457004e+00  3.6508167393022686e+00  3.5929131272830115e+00  3.5311839393355373e+00  3.4658730597624889e+00  3.3973837251096253e+00  3.3262897150888096e+00  3.2533286982236453e+00  3.1793737785231109e+00  3.1053831322765677e+00  3.0323327659681776e+00  2.9611423238270453e+00  2.8926066098354801e+00  2.8273447165283447e+00  2.7657744201467516e+00  2.7081133446852066e+00  2.6544025648164999e+00  2.6045446382748856e+00  2.5583471939325704e+00  2.5155646482766603e+00  2.4759332612696663e+00  2.4391974733492945e+00  2.4051275881374572e+00  2.3735301399644402e+00  2.3442527976481560e+00  2.3171856399365320e+00  2.2922603416770384e+00  2.2694484292030603e+00  2.2487594276872911e+00  2.2302395039581078e+00  2.2139711419431509e+00  2.2000744451164409e+00  2.1887107314581229e+00  2.1800904747577028e+00  2.1744799728578634e+00  2.1722393442445584e+00  4.1279342466372047e+00  4.1253320641398501e+00  4.1188631465477332e+00  4.1088730742722044e+00  4.0955841796997303e+00  4.0791439602786612e+00  4.0596297558784116e+00  4.0370584341757603e+00  4.0113920339955866e+00  3.9825422970617885e+00  3.9503751172901822e+00  3.9147161044284933e+00  3.8753585173294702e+00  3.8320748884660127e+00  3.7846337045618803e+00  3.7328224025366210e+00  3.6764775176143156e+00  3.6155218823859485e+00  3.5500071517773928e+00  3.4801575938829883e+00  3.4064083277173065e+00  3.3294287653543111e+00  3.2501211661867710e+00  3.1695863180771844e+00  3.0890541913363743e+00  3.0097861960623575e+00  2.9329647008198476e+00  2.8595909211536887e+00  2.7904112338537139e+00  2.7258843436056583e+00  2.6661906129396207e+00  2.6112747897678386e+00  2.5609077488933205e+00  2.5147525475698429e+00  2.4724236284070327e+00  2.4335330261260193e+00  2.3977219822127331e+00  2.3646794508226745e+00  2.3341504761840626e+00  2.3059377129289320e+00  2.2798989513462935e+00  2.2559428238320129e+00  2.2340241833843635e+00  2.2141401030490595e+00  2.1963270972957010e+00  2.1806600166371353e+00  2.1672530532251191e+00  2.1562632708113827e+00  2.1478987552450390e+00  2.1424234243597335e+00  2.1402019009109932e+00  4.1613152440147774e+00  4.1587243194999548e+00  4.1523581390634883e+00  4.1425570984415048e+00  4.1295300578243417e+00  4.1134078033404791e+00  4.0942455413920253e+00  4.0720318967982410e+00  4.0466935405718916e+00  4.0180985142115215e+00  3.9860592231738670e+00  3.9503363861465717e+00  3.9106454507102155e+00  3.8666672576754371e+00  3.8180650267595935e+00  3.7645098948864244e+00  3.7057170255065315e+00  3.6414933791377262e+00  3.5717961978596287e+00  3.4967978272482165e+00  3.4169478170625327e+00  3.3330182789091074e+00  3.2461153161518785e+00  3.1576408494168469e+00  3.0691976517880026e+00  2.9824454819796244e+00  2.8989332128142458e+00  2.8199430315733953e+00  2.7463815789424140e+00  2.6787387124211328e+00  2.6171139039304196e+00  2.5612925288564181e+00  2.5108459865106387e+00  2.4652313541676989e+00  2.4238742694166944e+00  2.3862280561022629e+00  2.3518093998730674e+00  2.3202149918428123e+00  2.2911249022347988e+00  2.2642980361652540e+00  2.2395638284061636e+00  2.2168130092363132e+00  2.1959891582234832e+00  2.1770819731353361e+00  2.1601227099620366e+00  2.1451820459513971e+00  2.1323705765319323e+00  2.1218421014580917e+00  2.1138017488742840e+00  2.1085094142666057e+00  2.1063290360311235e+00  4.1964907416074588e+00  4.1939344646575423e+00  4.1877255163648659e+00  4.1781937811138476e+00  4.1655324148046038e+00  4.1498540611202674e+00  4.1311913480109768e+00  4.1095047133977518e+00  4.0846854764105860e+00  4.0565572463162303e+00  4.0248765611053408e+00  3.9893340807972382e+00  3.9495580575901137e+00  3.9051223344429147e+00  3.8555617793482857e+00  3.8003986928390701e+00  3.7391840281399706e+00  3.6715567092421839e+00  3.5973221660627557e+00  3.5165466047259319e+00  3.4296560828063400e+00  3.3375200334019768e+00  3.2414906211048522e+00  3.1433678152238440e+00  3.0452713524187929e+00  2.9494265209562469e+00  2.8579034369831828e+00  2.7723731511078906e+00  2.6939432848101128e+00  2.6231085954484712e+00  2.5598121208937203e+00  2.5035806594243359e+00  2.4536869302542605e+00  2.4092985920125560e+00  2.3695915909177496e+00  2.3338220912129071e+00  2.3013622540999474e+00  2.2717098060850631e+00  2.2444815427737113e+00  2.2193989073204126e+00  2.1962712127386697e+00  2.1749798192567242e+00  2.1554649379271860e+00  2.1377157054558968e+00  2.1217636347595894e+00  2.1076793510009888e+00  2.0955725158815932e+00  2.0855948190941960e+00  2.0779479506628937e+00  2.0728860972157372e+00  2.0707675176243820e+00  4.2333493864701817e+00  4.2308513194664812e+00  4.2248570140829900e+00  4.2156809561924442e+00  4.2034988337917127e+00  4.1884044533247877e+00  4.1704083920217121e+00  4.1494442341719404e+00  4.1253696080261060e+00  4.0979650064543893e+00  4.0669311334348146e+00  4.0318860316715215e+00  3.9923638021982022e+00  3.9478175428091675e+00  3.8976302645481167e+00  3.8411388993101538e+00  3.7776777829020758e+00  3.7066484972507663e+00  3.6276214471746862e+00  3.5404692606619332e+00  3.4455212686115591e+00  3.3437116899463106e+00  3.2366755323867764e+00  3.1267356315508885e+00  3.0167360263515937e+00  2.9097200009494504e+00  2.8085153658203401e+00  2.7153414651319183e+00  2.6315549233687334e+00  2.5575966712714369e+00  2.4931232992430661e+00  2.4372475956349335e+00  2.3888004165839254e+00  2.3465499802306056e+00  2.3093508524190205e+00  2.2762238264577808e+00  2.2463828499097844e+00  2.2192284789727266e+00  2.1943242978019657e+00  2.1713676695030442e+00  2.1501614982135004e+00  2.1305902511843389e+00  2.1126013473929177e+00  2.0961918750958861e+00  2.0814001206444446e+00  2.0683013130085617e+00  2.0570070961867479e+00  2.0476683124605422e+00  2.0404827991273384e+00  2.0356973358473303e+00  2.0336597098349065e+00  4.2717776456491467e+00  4.2693613783617677e+00  4.2636409236508062e+00  4.2549110015422551e+00  4.2433286684802543e+00  4.2289690839148850e+00  4.2118224914795164e+00  4.1917985544882992e+00  4.1687250027020788e+00  4.1423433127065126e+00  4.1123019025041074e+00  4.0781478508265723e+00  4.0393188083277485e+00  3.9951378398313291e+00  3.9448155954757911e+00  3.8874665145770115e+00  3.8221485652001128e+00  3.7479386329714535e+00  3.6640564293541429e+00  3.5700455881680733e+00  3.4660070426597196e+00  3.3528530378650716e+00  3.2325122469531227e+00  3.1079828489105887e+00  2.9831323538549004e+00  2.8622114406319841e+00  2.7491770202116186e+00  2.6470378016242644e+00  2.5574501395274818e+00  2.4806787859757287e+00  2.4158705986374569e+00  2.3614826388631496e+00  2.3157019835110328e+00  2.2767593648109621e+00  2.2431117405406957e+00  2.2135152969421998e+00  2.1870263363574409e+00  2.1629644369547614e+00  2.1408621208944960e+00  2.1204151295885652e+00  2.1014399505704411e+00  2.0838406795812219e+00  2.0675849366073296e+00  2.0526875849747839e+00  2.0392008089661857e+00  2.0272092956366534e+00  2.0168295821650100e+00  2.0082128538547188e+00  2.0015526319462866e+00  1.9970865443766661e+00  1.9951473109811677e+00  4.3116548123202332e+00  4.3093436527347535e+00  4.3039566066750803e+00  4.2957648314958918e+00  4.2849062455963507e+00  4.2714384907619296e+00  4.2553344797278490e+00  4.2364846718877880e+00  4.2146931702180321e+00  4.1896699452941633e+00  4.1610192664890384e+00  4.1282248721826500e+00  4.0906330500381136e+00  4.0474359936383433e