<?xml version="1.0"?>
<VTKFile type="UnstructuredGrid"  version="0.1"  >
<UnstructuredGrid>
<Piece  NumberOfPoints="5101" NumberOfCells="10000">
<Points>
<DataArray  type="Float64"  NumberOfComponents="3"  format="ascii">0 0 0  0.2 0 0  0.4 0 0  0.6 0 0  0.8 0 0  1 0 0  1.2 0 0  1.4 0 0  1.6 0 0  1.8 0 0  2 0 0  2.2 0 0  2.4 0 0  2.6 0 0  2.8 0 0  3 0 0  3.2 0 0  3.4 0 0  3.6 0 0  3.8 0 0  4 0 0  4.2 0 0  4.4 0 0  4.6 0 0  4.8 0 0  5 0 0  5.2 0 0  5.4 0 0  5.6 0 0  5.8 0 0  6 0 0  6.2 0 0  6.4 0 0  6.6 0 0  6.8 0 0  7 0 0  7.2 0 0  7.4 0 0  7.6 0 0  7.8 0 0  8 0 0  8.199999999999999 0 0  8.4 0 0  8.6 0 0  8.800000000000001 0 0  9 0 0  9.199999999999999 0 0  9.4 0 0  9.6 0 0  9.800000000000001 0 0  10 0 0  0 0.2 0  0.2 0.2 0  0.4 0.2 0  0.6 0.2 0  0.8 0.2 0  1 0.2 0  1.2 0.2 0  1.4 0.2 0  1.6 0.2 0  1.8 0.2 0  2 0.2 0  2.2 0.2 0  2.4 0.2 0  2.6 0.2 0  2.8 0.2 0  3 0.2 0  3.2 0.2 0  3.4 0.2 0  3.6 0.2 0  3.8 0.2 0  4 0.2 0  4.2 0.2 0  4.4 0.2 0  4.6 0.2 0  4.8 0.2 0  5 0.2 0  5.2 0.2 0  5.4 0.2 0  5.6 0.2 0  5.8 0.2 0  6 0.2 0  6.2 0.2 0  6.4 0.2 0  6.6 0.2 0  6.8 0.2 0  7 0.2 0  7.2 0.2 0  7.4 0.2 0  7.6 0.2 0  7.8 0.2 0  8 0.2 0  8.199999999999999 0.2 0  8.4 0.2 0  8.6 0.2 0  8.800000000000001 0.2 0  9 0.2 0  9.199999999999999 0.2 0  9.4 0.2 0  9.6 0.2 0  9.800000000000001 0.2 0  10 0.2 0  0 0.4 0  0.2 0.4 0  0.4 0.4 0  0.6 0.4 0  0.8 0.4 0  1 0.4 0  1.2 0.4 0  1.4 0.4 0  1.6 0.4 0  1.8 0.4 0  2 0.4 0  2.2 0.4 0  2.4 0.4 0  2.6 0.4 0  2.8 0.4 0  3 0.4 0  3.2 0.4 0  3.4 0.4 0  3.6 0.4 0  3.8 0.4 0  4 0.4 0  4.2 0.4 0  4.4 0.4 0  4.6 0.4 0  4.8 0.4 0  5 0.4 0  5.2 0.4 0  5.4 0.4 0  5.6 0.4 0  5.8 0.4 0  6 0.4 0  6.2 0.4 0  6.4 0.4 0  6.6 0.4 0  6.8 0.4 0  7 0.4 0  7.2 0.4 0  7.4 0.4 0  7.6 0.4 0  7.8 0.4 0  8 0.4 0  8.199999999999999 0.4 0  8.4 0.4 0  8.6 0.4 0  8.800000000000001 0.4 0  9 0.4 0  9.199999999999999 0.4 0  9.4 0.4 0  9.6 0.4 0  9.800000000000001 0.4 0  10 0.4 0  0 0.6 0  0.2 0.6 0  0.4 0.6 0  0.6 0.6 0  0.8 0.6 0  1 0.6 0  1.2 0.6 0  1.4 0.6 0  1.6 0.6 0  1.8 0.6 0  2 0.6 0  2.2 0.6 0  2.4 0.6 0  2.6 0.6 0  2.8 0.6 0  3 0.6 0  3.2 0.6 0  3.4 0.6 0  3.6 0.6 0  3.8 0.6 0  4 0.6 0  4.2 0.6 0  4.4 0.6 0  4.6 0.6 0  4.8 0.6 0  5 0.6 0  5.2 0.6 0  5.4 0.6 0  5.6 0.6 0  5.8 0.6 0  6 0.6 0  6.2 0.6 0  6.4 0.6 0  6.6 0.6 0  6.8 0.6 0  7 0.6 0  7.2 0.6 0  7.4 0.6 0  7.6 0.6 0  7.8 0.6 0  8 0.6 0  8.199999999999999 0.6 0  8.4 0.6 0  8.6 0.6 0  8.800000000000001 0.6 0  9 0.6 0  9.199999999999999 0.6 0  9.4 0.6 0  9.6 0.6 0  9.800000000000001 0.6 0  10 0.6 0  0 0.8 0  0.2 0.8 0  0.4 0.8 0  0.6 0.8 0  0.8 0.8 0  1 0.8 0  1.2 0.8 0  1.4 0.8 0  1.6 0.8 0  1.8 0.8 0  2 0.8 0  2.2 0.8 0  2.4 0.8 0  2.6 0.8 0  2.8 0.8 0  3 0.8 0  3.2 0.8 0  3.4 0.8 0  3.6 0.8 0  3.8 0.8 0  4 0.8 0  4.2 0.8 0  4.4 0.8 0  4.6 0.8 0  4.8 0.8 0  5 0.8 0  5.2 0.8 0  5.4 0.8 0  5.6 0.8 0  5.8 0.8 0  6 0.8 0  6.2 0.8 0  6.4 0.8 0  6.6 0.8 0  6.8 0.8 0  7 0.8 0  7.2 0.8 0  7.4 0.8 0  7.6 0.8 0  7.8 0.8 0  8 0.8 0  8.199999999999999 0.8 0  8.4 0.8 0  8.6 0.8 0  8.800000000000001 0.8 0  9 0.8 0  9.199999999999999 0.8 0  9.4 0.8 0  9.6 0.8 0  9.800000000000001 0.8 0  10 0.8 0  0 1 0  0.2 1 0  0.4 1 0  0.6 1 0  0.8 1 0  1 1 0  1.2 1 0  1.4 1 0  1.6 1 0  1.8 1 0  2 1 0  2.2 1 0  2.4 1 0  2.6 1 0  2.8 1 0  3 1 0  3.2 1 0  3.4 1 0  3.6 1 0  3.8 1 0  4 1 0  4.2 1 0  4.4 1 0  4.6 1 0  4.8 1 0  5 1 0  5.2 1 0  5.4 1 0  5.6 1 0  5.8 1 0  6 1 0  6.2 1 0  6.4 1 0  6.6 1 0  6.8 1 0  7 1 0  7.2 1 0  7.4 1 0  7.6 1 0  7.8 1 0  8 1 0  8.199999999999999 1 0  8.4 1 0  8.6 1 0  8.800000000000001 1 0  9 1 0  9.199999999999999 1 0  9.4 1 0  9.6 1 0  9.800000000000001 1 0  10 1 0  0 1.2 0  0.2 1.2 0  0.4 1.2 0  0.6 1.2 0  0.8 1.2 0  1 1.2 0  1.2 1.2 0  1.4 1.2 0  1.6 1.2 0  1.8 1.2 0  2 1.2 0  2.2 1.2 0  2.4 1.2 0  2.6 1.2 0  2.8 1.2 0  3 1.2 0  3.2 1.2 0  3.4 1.2 0  3.6 1.2 0  3.8 1.2 0  4 1.2 0  4.2 1.2 0  4.4 1.2 0  4.6 1.2 0  4.8 1.2 0  5 1.2 0  5.2 1.2 0  5.4 1.2 0  5.6 1.2 0  5.8 1.2 0  6 1.2 0  6.2 1.2 0  6.4 1.2 0  6.6 1.2 0  6.8 1.2 0  7 1.2 0  7.2 1.2 0  7.4 1.2 0  7.6 1.2 0  7.8 1.2 0  8 1.2 0  8.199999999999999 1.2 0  8.4 1.2 0  8.6 1.2 0  8.800000000000001 1.2 0  9 1.2 0  9.199999999999999 1.2 0  9.4 1.2 0  9.6 1.2 0  9.800000000000001 1.2 0  10 1.2 0  0 1.4 0  0.2 1.4 0  0.4 1.4 0  0.6 1.4 0  0.8 1.4 0  1 1.4 0  1.2 1.4 0  1.4 1.4 0  1.6 1.4 0  1.8 1.4 0  2 1.4 0  2.2 1.4 0  2.4 1.4 0  2.6 1.4 0  2.8 1.4 0  3 1.4 0  3.2 1.4 0  3.4 1.4 0  3.6 1.4 0  3.8 1.4 0  4 1.4 0  4.2 1.4 0  4.4 1.4 0  4.6 1.4 0  4.8 1.4 0  5 1.4 0  5.2 1.4 0  5.4 1.4 0  5.6 1.4 0  5.8 1.4 0  6 1.4 0  6.2 1.4 0  6.4 1.4 0  6.6 1.4 0  6.8 1.4 0  7 1.4 0  7.2 1.4 0  7.4 1.4 0  7.6 1.4 0  7.8 1.4 0  8 1.4 0  8.199999999999999 1.4 0  8.4 1.4 0  8.6 1.4 0  8.800000000000001 1.4 0  9 1.4 0  9.199999999999999 1.4 0  9.4 1.4 0  9.6 1.4 0  9.800000000000001 1.4 0  10 1.4 0  0 1.6 0  0.2 1.6 0  0.4 1.6 0  0.6 1.6 0  0.8 1.6 0  1 1.6 0  1.2 1.6 0  1.4 1.6 0  1.6 1.6 0  1.8 1.6 0  2 1.6 0  2.2 1.6 0  2.4 1.6 0  2.6 1.6 0  2.8 1.6 0  3 1.6 0  3.2 1.6 0  3.4 1.6 0  3.6 1.6 0  3.8 1.6 0  4 1.6 0  4.2 1.6 0  4.4 1.6 0  4.6 1.6 0  4.8 1.6 0  5 1.6 0  5.2 1.6 0  5.4 1.6 0  5.6 1.6 0  5.8 1.6 0  6 1.6 0  6.2 1.6 0  6.4 1.6 0  6.6 1.6 0  6.8 1.6 0  7 1.6 0  7.2 1.6 0  7.4 1.6 0  7.6 1.6 0  7.8 1.6 0  8 1.6 0  8.199999999999999 1.6 0  8.4 1.6 0  8.6 1.6 0  8.800000000000001 1.6 0  9 1.6 0  9.199999999999999 1.6 0  9.4 1.6 0  9.6 1.6 0  9.800000000000001 1.6 0  10 1.6 0  0 1.8 0  0.2 1.8 0  0.4 1.8 0  0.6 1.8 0  0.8 1.8 0  1 1.8 0  1.2 1.8 0  1.4 1.8 0  1.6 1.8 0  1.8 1.8 0  2 1.8 0  2.2 1.8 0  2.4 1.8 0  2.6 1.8 0  2.8 1.8 0  3 1.8 0  3.2 1.8 0  3.4 1.8 0  3.6 1.8 0  3.8 1.8 0  4 1.8 0  4.2 1.8 0  4.4 1.8 0  4.6 1.8 0  4.8 1.8 0  5 1.8 0  5.2 1.8 0  5.4 1.8 0  5.6 1.8 0  5.8 1.8 0  6 1.8 0  6.2 1.8 0  6.4 1.8 0  6.6 1.8 0  6.8 1.8 0  7 1.8 0  7.2 1.8 0  7.4 1.8 0  7.6 1.8 0  7.8 1.8 0  8 1.8 0  8.199999999999999 1.8 0  8.4 1.8 0  8.6 1.8 0  8.800000000000001 1.8 0  9 1.8 0  9.199999999999999 1.8 0  9.4 1.8 0  9.6 1.8 0  9.800000000000001 1.8 0  10 1.8 0  0 2 0  0.2 2 0  0.4 2 0  0.6 2 0  0.8 2 0  1 2 0  1.2 2 0  1.4 2 0  1.6 2 0  1.8 2 0  2 2 0  2.2 2 0  2.4 2 0  2.6 2 0  2.8 2 0  3 2 0  3.2 2 0  3.4 2 0  3.6 2 0  3.8 2 0  4 2 0  4.2 2 0  4.4 2 0  4.6 2 0  4.8 2 0  5 2 0  5.2 2 0  5.4 2 0  5.6 2 0  5.8 2 0  6 2 0  6.2 2 0  6.4 2 0  6.6 2 0  6.8 2 0  7 2 0  7.2 2 0  7.4 2 0  7.6 2 0  7.8 2 0  8 2 0  8.199999999999999 2 0  8.4 2 0  8.6 2 0  8.800000000000001 2 0  9 2 0  9.199999999999999 2 0  9.4 2 0  9.6 2 0  9.800000000000001 2 0  10 2 0  0 2.2 0  0.2 2.2 0  0.4 2.2 0  0.6 2.2 0  0.8 2.2 0  1 2.2 0  1.2 2.2 0  1.4 2.2 0  1.6 2.2 0  1.8 2.2 0  2 2.2 0  2.2 2.2 0  2.4 2.2 0  2.6 2.2 0  2.8 2.2 0  3 2.2 0  3.2 2.2 0  3.4 2.2 0  3.6 2.2 0  3.8 2.2 0  4 2.2 0  4.2 2.2 0  4.4 2.2 0  4.6 2.2 0  4.8 2.2 0  5 2.2 0  5.2 2.2 0  5.4 2.2 0  5.6 2.2 0  5.8 2.2 0  6 2.2 0  6.2 2.2 0  6.4 2.2 0  6.6 2.2 0  6.8 2.2 0  7 2.2 0  7.2 2.2 0  7.4 2.2 0  7.6 2.2 0  7.8 2.2 0  8 2.2 0  8.199999999999999 2.2 0  8.4 2.2 0  8.6 2.2 0  8.800000000000001 2.2 0  9 2.2 0  9.199999999999999 2.2 0  9.4 2.2 0  9.6 2.2 0  9.800000000000001 2.2 0  10 2.2 0  0 2.4 0  0.2 2.4 0  0.4 2.4 0  0.6 2.4 0  0.8 2.4 0  1 2.4 0  1.2 2.4 0  1.4 2.4 0  1.6 2.4 0  1.8 2.4 0  2 2.4 0  2.2 2.4 0  2.4 2.4 0  2.6 2.4 0  2.8 2.4 0  3 2.4 0  3.2 2.4 0  3.4 2.4 0  3.6 2.4 0  3.8 2.4 0  4 2.4 0  4.2 2.4 0  4.4 2.4 0  4.6 2.4 0  4.8 2.4 0  5 2.4 0  5.2 2.4 0  5.4 2.4 0  5.6 2.4 0  5.8 2.4 0  6 2.4 0  6.2 2.4 0  6.4 2.4 0  6.6 2.4 0  6.8 2.4 0  7 2.4 0  7.2 2.4 0  7.4 2.4 0  7.6 2.4 0  7.8 2.4 0  8 2.4 0  8.199999999999999 2.4 0  8.4 2.4 0  8.6 2.4 0  8.800000000000001 2.4 0  9 2.4 0  9.199999999999999 2.4 0  9.4 2.4 0  9.6 2.4 0  9.800000000000001 2.4 0  10 2.4 0  0 2.6 0  0.2 2.6 0  0.4 2.6 0  0.6 2.6 0  0.8 2.6 0  1 2.6 0  1.2 2.6 0  1.4 2.6 0  1.6 2.6 0  1.8 2.6 0  2 2.6 0  2.2 2.6 0  2.4 2.6 0  2.6 2.6 0  2.8 2.6 0  3 2.6 0  3.2 2.6 0  3.4 2.6 0  3.6 2.6 0  3.8 2.6 0  4 2.6 0  4.2 2.6 0  4.4 2.6 0  4.6 2.6 0  4.8 2.6 0  5 2.6 0  5.2 2.6 0  5.4 2.6 0  5.6 2.6 0  5.8 2.6 0  6 2.6 0  6.2 2.6 0  6.4 2.6 0  6.6 2.6 0  6.8 2.6 0  7 2.6 0  7.2 2.6 0  7.4 2.6 0  7.6 2.6 0  7.8 2.6 0  8 2.6 0  8.199999999999999 2.6 0  8.4 2.6 0  8.6 2.6 0  8.800000000000001 2.6 0  9 2.6 0  9.199999999999999 2.6 0  9.4 2.6 0  9.6 2.6 0  9.800000000000001 2.6 0  10 2.6 0  0 2.8 0  0.2 2.8 0  0.4 2.8 0  0.6 2.8 0  0.8 2.8 0  1 2.8 0  1.2 2.8 0  1.4 2.8 0  1.6 2.8 0  1.8 2.8 0  2 2.8 0  2.2 2.8 0  2.4 2.8 0  2.6 2.8 0  2.8 2.8 0  3 2.8 0  3.2 2.8 0  3.4 2.8 0  3.6 2.8 0  3.8 2.8 0  4 2.8 0  4.2 2.8 0  4.4 2.8 0  4.6 2.8 0  4.8 2.8 0  5 2.8 0  5.2 2.8 0  5.4 2.8 0  5.6 2.8 0  5.8 2.8 0  6 2.8 0  6.2 2.8 0  6.4 2.8 0  6.6 2.8 0  6.8 2.8 0  7 2.8 0  7.2 2.8 0  7.4 2.8 0  7.6 2.8 0  7.8 2.8 0  8 2.8 0  8.199999999999999 2.8 0  8.4 2.8 0  8.6 2.8 0  8.800000000000001 2.8 0  9 2.8 0  9.199999999999999 2.8 0  9.4 2.8 0  9.6 2.8 0  9.800000000000001 2.8 0  10 2.8 0  0 3 0  0.2 3 0  0.4 3 0  0.6 3 0  0.8 3 0  1 3 0  1.2 3 0  1.4 3 0  1.6 3 0  1.8 3 0  2 3 0  2.2 3 0  2.4 3 0  2.6 3 0  2.8 3 0  3 3 0  3.2 3 0  3.4 3 0  3.6 3 0  3.8 3 0  4 3 0  4.2 3 0  4.4 3 0  4.6 3 0  4.8 3 0  5 3 0  5.2 3 0  5.4 3 0  5.6 3 0  5.8 3 0  6 3 0  6.2 3 0  6.4 3 0  6.6 3 0  6.8 3 0  7 3 0  7.2 3 0  7.4 3 0  7.6 3 0  7.8 3 0  8 3 0  8.199999999999999 3 0  8.4 3 0  8.6 3 0  8.800000000000001 3 0  9 3 0  9.199999999999999 3 0  9.4 3 0  9.6 3 0  9.800000000000001 3 0  10 3 0  0 3.2 0  0.2 3.2 0  0.4 3.2 0  0.6 3.2 0  0.8 3.2 0  1 3.2 0  1.2 3.2 0  1.4 3.2 0  1.6 3.2 0  1.8 3.2 0  2 3.2 0  2.2 3.2 0  2.4 3.2 0  2.6 3.2 0  2.8 3.2 0  3 3.2 0  3.2 3.2 0  3.4 3.2 0  3.6 3.2 0  3.8 3.2 0  4 3.2 0  4.2 3.2 0  4.4 3.2 0  4.6 3.2 0  4.8 3.2 0  5 3.2 0  5.2 3.2 0  5.4 3.2 0  5.6 3.2 0  5.8 3.2 0  6 3.2 0  6.2 3.2 0  6.4 3.2 0  6.6 3.2 0  6.8 3.2 0  7 3.2 0  7.2 3.2 0  7.4 3.2 0  7.6 3.2 0  7.8 3.2 0  8 3.2 0  8.199999999999999 3.2 0  8.4 3.2 0  8.6 3.2 0  8.800000000000001 3.2 0  9 3.2 0  9.199999999999999 3.2 0  9.4 3.2 0  9.6 3.2 0  9.800000000000001 3.2 0  10 3.2 0  0 3.4 0  0.2 3.4 0  0.4 3.4 0  0.6 3.4 0  0.8 3.4 0  1 
[...]
<PointData  Scalars="f_8"> 
<DataArray  type="Float64"  Name="f_8"  format="ascii">-3.8075765247126206e-02  -1.8088260761891940e-02  -9.1787796807580348e-03  -6.1450530079622248e-03  -3.6627113357298644e-03  -1.8516114416228273e-03  -3.5584372487654567e-04  9.5449342746092944e-04  2.1717748767516734e-03  3.3632403721929752e-03  4.5843338697712397e-03  5.8867446585659337e-03  7.3212063606649036e-03  8.9357483606049004e-03  1.0809110141187333e-02  1.3289192353129082e-02  1.8031430012037105e-02  3.0189171359831766e-02  4.5669236172040696e-02  5.9288410444398129e-02  1.8363857040948291e-02  -6.9439595435658388e-04  -1.2230176614787811e-04  2.9904079286391974e-04  1.5274753673575720e-03  3.1102948832945352e-03  4.6456917791658564e-03  5.7330749028794399e-03  5.9859389043286594e-03  5.7444428130979473e-03  -4.3231716121691398e-03  -6.1113744452294734e-02  -4.2518057697794889e-02  -2.9469373456687188e-02  -1.5657119064121133e-02  -1.0496552647269118e-02  -8.1480409216632809e-03  -6.5044529914586192e-03  -5.1266548265055962e-03  -3.9222175098783682e-03  -2.8420263164045259e-03  -1.8335400272910067e-03  -8.4294708598143880e-04  1.8681775486194241e-04  1.3239405621811801e-03  2.6610807913782786e-03  4.3279848555313862e-03  6.6796835984161132e-03  9.5965055066312352e-03  1.8408064225635248e-02  3.8190830637133667e-02  -3.0461155955494335e-01  -1.8923495395801784e-01  -1.2438447105265196e-01  -8.4703877264100599e-02  -5.7862867818386787e-02  -3.8457634693394020e-02  -2.3724779426868622e-02  -1.2047129282982223e-02  -2.3855932389734531e-03  5.9845115844428557e-03  1.3609375199361758e-02  2.0930651164445674e-02  2.8321714380418788e-02  3.6095706053540115e-02  4.4486475745213118e-02  5.3492306435197437e-02  6.2102645654195231e-02  6.7246519583038719e-02  6.2600919664454691e-02  4.3353676251023328e-02  2.8804774452136177e-02  1.9757426116032834e-02  1.6929446030963618e-02  1.1792666073381157e-02  6.0013242940408626e-03  -9.6534049438033875e-05  -6.2358063267349811e-03  -1.2125092181088749e-02  -1.7353345894212308e-02  -2.0507826488808906e-02  -2.4535264694612369e-02  -4.4198970184276903e-02  -6.2636601146280460e-02  -7.0732222390451113e-02  -6.6663855323521731e-02  -5.8215670410024123e-02  -4.8917876954279169e-02  -4.0122633860719223e-02  -3.1945829775164032e-02  -2.4193167917339106e-02  -1.6569325059654267e-02  -8.7050120704042812e-03  -1.5436607749294529e-04  9.6369628426325720e-03  2.1403035297874053e-02  3.6192006518027627e-02  5.5628871553192467e-02  8.2482908816842851e-02  1.2216152675689640e-01  1.8699067505772168e-01  3.0240367225326820e-01  -4.5417905564656147e-01  -3.1161561912758218e-01  -2.1804596296184586e-01  -1.5310003895104904e-01  -1.0682843313060350e-01  -7.2425731305231680e-02  -4.5911564797964127e-02  -2.4698288312448399e-02  -7.0168372188874721e-03  8.4271536983250434e-03  2.2647056016122599e-02  3.6485062249563022e-02  5.0662722402629125e-02  6.5771726009145992e-02  8.2176417975513436e-02  9.9727471165961271e-02  1.1685066380619120e-01  1.2724583332416523e-01  1.1507276223607649e-01  7.5845488886364734e-02  5.5422730815543921e-02  4.2076877903310862e-02  3.1623547298290984e-02  2.0498736801434731e-02  8.8293252042990211e-03  -3.2232044450975286e-03  -1.5337214500863080e-02  -2.7135899436599213e-02  -3.8290603286431323e-02  -4.8407038267653427e-02  -6.0449738155508151e-02  -8.0186891437297569e-02  -1.2066149739949478e-01  -1.3826662683112123e-01  -1.2974929044272032e-01  -1.1239555892077342e-01  -9.3931641295340859e-02  -7.6422901285072078e-02  -6.0220038872584307e-02  -4.5053681277110097e-02  -3.0371081614812809e-02  -1.5457603365395152e-02  5.3967018489369672e-04  1.8653329672099820e-02  4.0199692403366349e-02  6.6968891625340143e-02  1.0156636920011176e-01  1.4798552623324696e-01  2.1303871819795625e-01  3.0667898550086303e-01  4.4938085251992632e-01  -5.5711834258690329e-01  -4.0734824121491775e-01  -2.9635987473542308e-01  -2.1449471032569692e-01  -1.5317332051493021e-01  -1.0626550147743682e-01  -6.9426773462621771e-02  -3.9588132264715858e-02  -1.4505929363684411e-02  7.5384838517845269e-03  2.7935858041447020e-02  4.7869736082327342e-02  6.8368311585127600e-02  9.0272552366135933e-02  1.1407188665481847e-01  1.3945750611639307e-01  1.6403599127419499e-01  1.7871461542563929e-01  1.6168833012087602e-01  1.1138141750367402e-01  8.1757667431168732e-02  6.3282436959243890e-02  4.6016226115840678e-02  2.8739273445904965e-02  1.0970459612954332e-02  -7.2118044569739097e-03  -2.5486023497432002e-02  -4.3457619340674838e-02  -6.0872982151016101e-02  -7.7871551616102208e-02  -9.7384340562149355e-02  -1.2286679337386351e-01  -1.7492487561746597e-01  -1.9798886614612915e-01  -1.8545541380772240e-01  -1.6017254129134437e-01  -1.3316018061145476e-01  -1.0749728779043353e-01  -8.3787312603362724e-02  -6.1676630902933377e-02  -4.0375437268174517e-02  -1.8858889896836400e-02  4.0788558840219365e-03  2.9862590418261593e-02  6.0248213718606725e-02  9.7514472810759728e-02  1.4475962541916929e-01  2.0634864302802608e-01  2.8842132753142058e-01  3.9955684029550781e-01  5.4955937634196339e-01  -6.3503103256273663e-01  -4.8066580839429085e-01  -3.6049689327492435e-01  -2.6738363698731532e-01  -1.9512143750288338e-01  -1.3835878028077139e-01  -9.2929553042797472e-02  -5.5626328032308353e-02  -2.3958017961864031e-02  4.0712063821276272e-03  3.0132466287803684e-02  5.5686338762795981e-02  8.2026920138621617e-02  1.1022029485421256e-01  1.4085846026750076e-01  1.7341850691672370e-01  2.0443581689970636e-01  2.2173940114331994e-01  2.0084437652510512e-01  1.4550587712282179e-01  1.0834818052367214e-01  8.4048580489101674e-02  5.9900958934231370e-02  3.6295143323300638e-02  1.2253199278470944e-02  -1.2228694722047692e-02  -3.6846338504711064e-02  -6.1196593751974775e-02  -8.5076523768670753e-02  -1.0903711059241303e-01  -1.3497230919551778e-01  -1.6699116397502137e-01  -2.2339453177911880e-01  -2.4990590234303003e-01  -2.3474959042397761e-01  -2.0244948140749372e-01  -1.6742672722232474e-01  -1.3408297621302290e-01  -1.0333149582330600e-01  -7.4748897816037038e-02  -4.7322472109090838e-02  -1.9748959153524617e-02  9.4731957108620778e-03  4.2069484167804566e-02  8.0092584279659318e-02  1.2608607725161652e-01  1.8330049749145533e-01  2.5593124393733374e-01  3.4934094185402176e-01  4.6972784518726163e-01  6.2443609594576421e-01  -6.9748622251167569e-01  -5.4069708482087997e-01  -4.1455251703740714e-01  -3.1384013929574917e-01  -2.3354885287969165e-01  -1.6909345804669162e-01  -1.1661277480442339e-01  -7.2943024944075882e-02  -3.5500909236394720e-02  -2.1346057766269623e-03  2.9013954915796374e-02  5.9610156906500601e-02  9.1160066756344416e-02  1.2491959032124457e-01  1.6156400297057449e-01  2.0032969474156073e-01  2.3660925941532313e-01  2.5559888651608020e-01  2.3291099832982567e-01  1.7716376641744347e-01  1.3464309494842450e-01  1.0350988763411215e-01  7.2452303379121480e-02  4.2514331840684351e-02  1.2245648601075909e-02  -1.8445909635096579e-02  -4.9312539731844532e-02  -7.9978618517139569e-02  -1.1025620908172803e-01  -1.4100763187402107e-01  -1.7321499453099956e-01  -2.1087167986876595e-01  -2.6640621678434162e-01  -2.9343673116990771e-01  -2.7618361277843712e-01  -2.3789415465280772e-01  -1.9572012353897134e-01  -1.5546187606201237e-01  -1.1836984147790995e-01  -8.3960378014786743e-02  -5.1022390062902871e-02  -1.8019076027281235e-02  1.6781779025362428e-02  5.5318674273562879e-02  9.9824565285555875e-02  1.5295651423603615e-01  2.1793829315131466e-01  2.9867089933739011e-01  3.9975249809481039e-01  5.2617939630691313e-01  6.8343837846467403e-01  -7.5053095515535384e-01  -5.9222100819201351e-01  -4.6209625041380320e-01  -3.5600485203549037e-01  -2.6972889174893555e-01  -1.9923655612164198e-01  -1.4097020318649489e-01  -9.1886116293925596e-02  -4.9406205765627598e-02  -1.1318453436766731e-02  2.4332835676869582e-02  5.9334447750437544e-02  9.5327429466798549e-02  1.3369157720064392e-01  1.7514121961684639e-01  2.1867493095832080e-01  2.5876692027427645e-01  2.7929694703839042e-01  2.5804337824754431e-01  2.0554756708481906e-01  1.5901952283327722e-01  1.2025848277020323e-01  8.2369101701381356e-02  4.6147764567603215e-02  9.9473718637162582e-03  -2.6356879587479350e-02  -6.2751166665602820e-02  -9.9167558452086371e-02  -1.3552609216141573e-01  -1.7276083383744018e-01  -2.1157454512178586e-01  -2.5361173030022766e-01  -3.0412998376464973e-01  -3.2763700013185215e-01  -3.0780815435016784e-01  -2.6478874206184705e-01  -2.1684378212590966e-01  -1.7086291461397335e-01  -1.2841713462176893e-01  -8.8997912134433033e-02  -5.1253633906195264e-02  -1.3483913863370809e-02  2.6196657193892973e-02  6.9855287044422940e-02  1.1981376096453390e-01  1.7874904796132288e-01  2.4978506026300989e-01  3.3653227275521591e-01  4.4303825953906700e-01  5.7349729391003823e-01  7.3242215425202317e-01  -7.9840165076081293e-01  -6.3918484523331942e-01  -5.0623794314400272e-01  -3.9618799644358799e-01  -3.0531567708609508e-01  -2.2998081139265142e-01  -1.6688473984961258e-01  -1.1312999259062266e-01  -6.6204097515017213e-02  -2.3910590192895903e-02  1.5718989487988860e-02  5.4499621595469359e-02  9.4107616804823782e-02  1.3595025185072324e-01  1.8071857458717866e-01  2.2724243249377413e-01  2.6965246204725246e-01  2.9230978522857715e-01  2.7597267735409531e-01  2.2930360095602220e-01  1.7941380498093662e-01  1.3239991840774998e-01  8.7439198668726487e-02  4.4965896811537245e-02  3.5764115796965402e-03  -3.7029415845300742e-02  -7.7344826995397520e-02  -1.1795660414811676e-01  -1.5939612834542810e-01  -2.0276538199635685e-01  -2.4827236592131868e-01  -2.9359181988062527e-01  -3.3618452443935226e-01  -3.5204709945716334e-01  -3.2827142705341883e-01  -2.8172347520130875e-01  -2.2974861069508351e-01  -1.7957628133669856e-01  -1.3298185699392581e-01  -8.9479332441699005e-02  -4.7665160650210037e-02  -5.7691638330256171e-03  3.8159052436030030e-02  8.6234740118915965e-02  1.4079635686304737e-01  2.0448371573339258e-01  2.8029801135885224e-01  3.7160690184225131e-01  4.8207159192002652e-01  6.1538001563590650e-01  7.7537416194535513e-01  -8.4451740879597226e-01  -6.8483196512333022e-01  -5.4979722993657043e-01  -4.3670431640118701e-01  -3.4215622713881250e-01  -2.6279045533658035e-01  -1.9552346158113787e-01  -1.3761130921479389e-01  -8.6646199350789030e-02  -4.0506941124070106e-02  2.7100249171549688e-03  4.4751079371768664e-02  8.7213367418656276e-02  1.3141404697225662e-01  1.7795040623780187e-01  2.2561112433468475e-01  2.6891875340264731e-01  2.9430613633686570e-01  2.8516546957134414e-01  2.4501677972770702e-01  1.9235686587105927e-01  1.3782725156567260e-01  8.5814482986505666e-02  3.7939369809243513e-02  -7.4317996540338794e-03  -5.1131907155127318e-02  -9.4031213573223540e-02  -1.3709808150137689e-01  -1.8148628211610146e-01  -2.2907092698906562e-01  -2.7901214080842446e-01  -3.2617238052309400e-01  -3.6055726423795947e-01  -3.6631988065980475e-01  -3.3723470126149985e-01  -2.8817216725756356e-01  -2.3394872595924640e-01  -1.8120266543731173e-01  -1.3170191948823196e-01  -8.5023144700104969e-02  -3.9814995209434142e-02  5.6563907909224281e-03  5.3315516843335346e-02  1.0525193488110998e-01  1.6376359952152031e-01  2.3141641100279575e-01  3.1108458709994030e-01  4.0594082322201153e-01  5.1937835397843191e-01  6.5475974264914516e-01  8.1539998588761586e-01  -8.9197833001185156e-01  -7.3216755580107207e-01  -5.9550936240567687e-01  -4.7994042915741364e-01  -3.8228010596953599e-01  -2.9937039478437066e-01  -2.2831213082429094e-01  -1.6651676376035673e-01  -1.1170536462106703e-01  -6.1874342199161415e-02  -1.5248222391573491e-02  2.9761494156351192e-02  7.4556840881640885e-02  1.2023673468299806e-01  1.6721495132055153e-01  2.1431817615301482e-01  2.5694777293157095e-01  2.8441538589965193e-01  2.8243329848875437e-01  2.4844240458935293e-01  1.9475512646460652e-01  1.3621001408711628e-01  7.9537369562255600e-02  2.7256444733273870e-02  -2.1718307605571637e-02  -6.8388157432472091e-02  -1.1367357030455405e-01  -1.5859913563502995e-01  -2.0442910346856283e-01  -2.5265574417573944e-01  -3.0203999938674836e-01  -3.4722566617603551e-01  -3.7352299744121087e-01  -3.6909439224560309e-01  -3.3489345038001572e-01  -2.8455615942122120e-01  -2.2970033596429382e-01  -1.7578490998842472e-01  -1.2441298825485540e-01  -7.5274179142347505e-02  -2.7175278740663222e-02  2.1480220873355892e-02  7.2511186052157117e-02  1.2792259979225185e-01  1.8993035869406477e-01  2.6100249936691122e-01  3.4388665538721697e-01  4.4159637982104316e-01  5.5733730742674426e-01  6.9426231979212505e-01  8.5522066382340101e-01  -9.4387310241339406e-01  -7.8422915014410832e-01  -6.4620718049763948e-01  -5.2845163567079900e-01  -4.2794025795921203e-01  -3.4168087208683851e-01  -2.6694409511100670e-01  -2.0129763656449157e-01  -1.4260041725446707e-01  -8.8984460489472686e-02  -3.8839422839178690e-02  9.1975543037492499e-03  5.6231404199490173e-02  1.0301804997669442e-01  1.4967218507176183e-01  1.9500362322563086e-01  2.3529984484377328e-01  2.6268825376420074e-01  2.6587617919604328e-01  2.3888622057857672e-01  1.8858243507165484e-01  1.2955431628883940e-01  7.0455250183434071e-02  1.4283301020125649e-02  -3.8615164743789926e-02  -8.8703245128578162e-02  -1.3663428196462349e-01  -1.8323150223730847e-01  -2.2942159634982540e-01  -2.7575393121068670e-01  -3.2070668653551110e-01  -3.5777751798339613e-01  -3.7326165309103071e-01  -3.5981440256911723e-01  -3.2243259558754789e-01  -2.7231995150100202e-01  -2.1800951491869236e-01  -1.6378778425847221e-01  -1.1111192121024682e-01  -5.9861727560112613e-02  -9.0938525602083705e-03  4.2575258463445356e-02  9.6807357568070601e-02  1.5549046416454518e-01  2.2073727419358699e-01  2.9490512299782384e-01  3.8061491547106274e-01  4.8074227691851373e-01  5.9835516922608367e-01  7.3647120168247293e-01  8.9748066640398327e-01  -1.0034792435904571e+00  -8.4428560664722940e-01  -7.0497806899119464e-01  -5.8506946967798512e-01  -4.8168137119455928e-01  -3.9198145169918652e-01  -3.1341443539344982e-01  -2.4370649565666949e-01  -1.8084415602645385e-01  -1.2307677002157966e-01  -6.8954477121511426e-02  -1.7372708311020790e-02  3.2400233433412480e-02  8.0672340928286235e-02  1.2714679997014874e-01  1.7049111766167424e-01  2.0761020145349435e-01  2.3282242508941700e-01  2.3815993204786087e-01  2.1771720261976479e-01  1.7409039961069075e-01  1.1778358725711097e-01  5.7790198085120877e-02  -1.5868104240810629e-03  -5.8522072683249791e-02  -1.1236666452817959e-01  -1.6303410995906883e-01  -2.1074633909517410e-01  -2.5574189311501266e-01  -2.9763559564946407e-01  -3.3408373492493293e-01  -3.5865461425710804e-01  -3.6225697559827269e-01  -3.4200357855879293e-01  -3.0326321817224366e-01  -2.5405528828342294e-01  -2.0046568653903252e-01  -1.4591114581711626e-01  -9.1804857647905205e-02  -3.8283811991980631e-02  1.5291398196891862e-02  7.0060418853362089e-02  1.2752222720666928e-01  1.8945575523473362e-01  2.5787674082625761e-01  3.3503029586366539e-01  4.2340687181521508e-01  5.2574924393575295e-01  6.4501096892621090e-01  7.8411520755371067e-01  9.4495034599770145e-01  -1.0743959632925728e+00  -9.1599804821172937e-01  -7.7531184534670783e-01  -6.5301886528156960e-01  -5.4642866107561416e-01  -4.5289750915293636e-01  -3.7007375768925649e-01  -2.9585028328756063e-01  -2.2830728718762819e-01  -1.6574008777176258e-01  -1.0679325689432362e-01  -5.0609428769334303e-02  3.1159798421331831e-03  5.4155844537655873e-02  1.0171496488392841e-01  1.4421807637927225e-01  1.7893121843698953e-01  2.0164435738237282e-01  2.0702870428843526e-01  1.9080462986647351e-01  1.5345568564094225e-01  1.0115390335323439e-01  4.1326708552488961e-02  -2.0770733285524423e-02  -8.1829235291444452e-02  -1.3973442994847937e-01  -1.9314694884588146e-01  -2.4124279997737716e-01  -2.8336936558792830e-01  -3.1842116695347555e-01  -3.4388812565030874e-01  -3.5525406013157701e-01  -3.4813579962443436e-01  -3.2236914052242965e-01  -2.8211818134488814e-01  -2.3277089949600491e-01  -1.7870514451388825e-01  -1.2272401801560580e-01  -6.6260223359979040e-02  -9.7353125662954336e-03  4.7174330602931844e-02  1.0538519334546385e-01  1.6628901956224354e-01  2.3161961925513033e-01  3.0333658427536492e-01  3.8358069052343963e-01  4.7469931732859993e-01  5.7928774573802688e-01  7.0018137665482549e-01  8.4021681981542673e-01  1.0006677635018395e+00  -1.1605984849237476e+00  -1.0035786678036300e+00  -8.6127811287791212e-01  -7.3607559154336277e-01  -6.2562826368071633e-01  -5.2754144456492413e-01  -4.3972772614814259e-01  -3.6027021914878177e-01  -2.8728888636484218e-01  -2.1898429596863539e-01  -1.5394361354308042e-01  -9.1500902424036745e-02  -3.1837482371237361e-02  2.4180028429480728e-02  7.5172435440358218e-02  1.1924863232938529e-01  1.5385327747727237e-01  1.7568105300046871e-01  1.8103489551633739e-01  1.6702898118284956e-01  1.3347318944120404e-01  8.3786247063441455e-02  2.3454188355727934e-02  -4.2101490099897637e-02  -1.0825893645014993e-01  -1.7120370844623364e-01  -2.2793105787894755e-01  -2.7625845841477592e-01  -3.1465942629646498e-01  -3.4181166806258695e-01  -3.5603232495067400e-01  -3.5527046654750510e-01  -3.3836003364642059e-01  -3.0642832195810232e-01  -2.6260466020118783e-01  -2.1061807752934977e-01  -1.5371529148599380e-01  -9.4261460917399273e-02  -3.3754672232835709e-02  2.7069342309773353e-02  8.8210910614974616e-02  1.5042372901995216e-01  2.1512482039272790e-01  2.8414345102083349e-01  3.5946381361556151e-01  4.4313202081876685e-01  5.3732100039035469e-01  6.4443783268119614e-01  7.6716643297270337e-01  9.0822262753209149e-01  1.0680449816405462e+00  -1.2661793678416395e+00  -1.1123521466409825e+00  -9.6803278007515903e-01  -8.3905787749309513e-01  -7.2369327176906906e-01  -6.1987085890818883e-01  -5.2586503173074683e-01  -4.4003100328443301e-01  -3.6050529373361151e-01  -2.8518040027582692e-01  -2.1230380882504260e-01  -1.4129532516229776e-01  -7.2927796107618334e-02  -8.8781518356887308e-03  4.8766679540175564e-02  9.7721619629087181e-02  1.3546268706834860e-01  1.5917264827649974e-01  1.6597217289256766e-01  1.5363200735510030e-01  1.2162911889658892e-01  7.1887941382325724e-02  8.5283148418486641e-03  -6.3044187531574300e-02  -1.3691856257822968e-01  -2.0728316666737917e-01  -2.6906789880832549e-01  -3.1850923238501050e-01  -3.5335432775933706e-01  -3.7258824290905013e-01  -3.7592343058683930e-01  -3.6355177659042315e-01  -3.3639171023915232e-01  -2.9634356164761277e-01  -2.4603289289256719e-01  -1.8824278152164092e-01  -1.2548065985855941e-01  -5.9830079472746267e-02  7.0490361761700116e-03  7.3995882995076548e-02  1.4061206513143196e-01  2.0756050423461242e-01  2.7651786117103783e-01  3.4965076308289406e-01  4.2908260912370888e-01  5.1676123900641147e-01  6.1462729795371918e-01  7.2482952513864740e-01  8.4983934700757424e-01  9.9212520159785933e-01  1.1509426900562332e+00  -1.3935357999844420e+00  -1.2504917327217571e+00  -1.1030014491055784e+00  -9.6867256242558353e-01  -8.4632834602105034e-01  -7.3441705826005710e-01  -6.3185773820795854e-01  -5.3761527324305647e-01  -4.4996167077137861e-01  -3.6610808272029666e-01  -2.8334944637222625e-01  -2.0095325928456295e-01  -1.2048237750135059e-01  -4.4720832242123081e-02  2.3350071584449308e-02  8.0971032794043149e-02  1.2554671083684579e-01  1.5445876924063884e-01  1.6508076846392747e-01  1.5517805614464394e-01  1.2364945728458741e-01  7.1322833842782846e-02  1.4375794858836324e-03  -8.0351674736607412e-02  -1.6646185034657707e-01  -2.4843234191269759e-01  -3.1844843400040679e-01  -3.7080908432882925e-01  -4.0268518112083768e-01  -4.1387836593669725e-01  -4.0592322877072001e-01  -3.8116334191814161e-01  -3.4219305329127997e-01  -2.9160146461724679e-01  -2.3181677067089038e-01  -1.6501582660427702e-01  -9.3167144687029857e-02  -1.8192178475492895e-02  5.7926543867435641e-02  1.3335034055897965e-01  2.0705211721256006e-01  2.7965639318592922e-01  3.5349681766321855e-01  4.3143688307483830e-01  5.1581959852002801e-01  6.0842654781673011e-01  7.108847474750570