<?xml version="1.0"?>
<VTKFile type="UnstructuredGrid"  version="0.1"  >
<UnstructuredGrid>
<Piece  NumberOfPoints="5101" NumberOfCells="10000">
<Points>
<DataArray  type="Float64"  NumberOfComponents="3"  format="ascii">0 0 0  0.2 0 0  0.4 0 0  0.6 0 0  0.8 0 0  1 0 0  1.2 0 0  1.4 0 0  1.6 0 0  1.8 0 0  2 0 0  2.2 0 0  2.4 0 0  2.6 0 0  2.8 0 0  3 0 0  3.2 0 0  3.4 0 0  3.6 0 0  3.8 0 0  4 0 0  4.2 0 0  4.4 0 0  4.6 0 0  4.8 0 0  5 0 0  5.2 0 0  5.4 0 0  5.6 0 0  5.8 0 0  6 0 0  6.2 0 0  6.4 0 0  6.6 0 0  6.8 0 0  7 0 0  7.2 0 0  7.4 0 0  7.6 0 0  7.8 0 0  8 0 0  8.199999999999999 0 0  8.4 0 0  8.6 0 0  8.800000000000001 0 0  9 0 0  9.199999999999999 0 0  9.4 0 0  9.6 0 0  9.800000000000001 0 0  10 0 0  0 0.2 0  0.2 0.2 0  0.4 0.2 0  0.6 0.2 0  0.8 0.2 0  1 0.2 0  1.2 0.2 0  1.4 0.2 0  1.6 0.2 0  1.8 0.2 0  2 0.2 0  2.2 0.2 0  2.4 0.2 0  2.6 0.2 0  2.8 0.2 0  3 0.2 0  3.2 0.2 0  3.4 0.2 0  3.6 0.2 0  3.8 0.2 0  4 0.2 0  4.2 0.2 0  4.4 0.2 0  4.6 0.2 0  4.8 0.2 0  5 0.2 0  5.2 0.2 0  5.4 0.2 0  5.6 0.2 0  5.8 0.2 0  6 0.2 0  6.2 0.2 0  6.4 0.2 0  6.6 0.2 0  6.8 0.2 0  7 0.2 0  7.2 0.2 0  7.4 0.2 0  7.6 0.2 0  7.8 0.2 0  8 0.2 0  8.199999999999999 0.2 0  8.4 0.2 0  8.6 0.2 0  8.800000000000001 0.2 0  9 0.2 0  9.199999999999999 0.2 0  9.4 0.2 0  9.6 0.2 0  9.800000000000001 0.2 0  10 0.2 0  0 0.4 0  0.2 0.4 0  0.4 0.4 0  0.6 0.4 0  0.8 0.4 0  1 0.4 0  1.2 0.4 0  1.4 0.4 0  1.6 0.4 0  1.8 0.4 0  2 0.4 0  2.2 0.4 0  2.4 0.4 0  2.6 0.4 0  2.8 0.4 0  3 0.4 0  3.2 0.4 0  3.4 0.4 0  3.6 0.4 0  3.8 0.4 0  4 0.4 0  4.2 0.4 0  4.4 0.4 0  4.6 0.4 0  4.8 0.4 0  5 0.4 0  5.2 0.4 0  5.4 0.4 0  5.6 0.4 0  5.8 0.4 0  6 0.4 0  6.2 0.4 0  6.4 0.4 0  6.6 0.4 0  6.8 0.4 0  7 0.4 0  7.2 0.4 0  7.4 0.4 0  7.6 0.4 0  7.8 0.4 0  8 0.4 0  8.199999999999999 0.4 0  8.4 0.4 0  8.6 0.4 0  8.800000000000001 0.4 0  9 0.4 0  9.199999999999999 0.4 0  9.4 0.4 0  9.6 0.4 0  9.800000000000001 0.4 0  10 0.4 0  0 0.6 0  0.2 0.6 0  0.4 0.6 0  0.6 0.6 0  0.8 0.6 0  1 0.6 0  1.2 0.6 0  1.4 0.6 0  1.6 0.6 0  1.8 0.6 0  2 0.6 0  2.2 0.6 0  2.4 0.6 0  2.6 0.6 0  2.8 0.6 0  3 0.6 0  3.2 0.6 0  3.4 0.6 0  3.6 0.6 0  3.8 0.6 0  4 0.6 0  4.2 0.6 0  4.4 0.6 0  4.6 0.6 0  4.8 0.6 0  5 0.6 0  5.2 0.6 0  5.4 0.6 0  5.6 0.6 0  5.8 0.6 0  6 0.6 0  6.2 0.6 0  6.4 0.6 0  6.6 0.6 0  6.8 0.6 0  7 0.6 0  7.2 0.6 0  7.4 0.6 0  7.6 0.6 0  7.8 0.6 0  8 0.6 0  8.199999999999999 0.6 0  8.4 0.6 0  8.6 0.6 0  8.800000000000001 0.6 0  9 0.6 0  9.199999999999999 0.6 0  9.4 0.6 0  9.6 0.6 0  9.800000000000001 0.6 0  10 0.6 0  0 0.8 0  0.2 0.8 0  0.4 0.8 0  0.6 0.8 0  0.8 0.8 0  1 0.8 0  1.2 0.8 0  1.4 0.8 0  1.6 0.8 0  1.8 0.8 0  2 0.8 0  2.2 0.8 0  2.4 0.8 0  2.6 0.8 0  2.8 0.8 0  3 0.8 0  3.2 0.8 0  3.4 0.8 0  3.6 0.8 0  3.8 0.8 0  4 0.8 0  4.2 0.8 0  4.4 0.8 0  4.6 0.8 0  4.8 0.8 0  5 0.8 0  5.2 0.8 0  5.4 0.8 0  5.6 0.8 0  5.8 0.8 0  6 0.8 0  6.2 0.8 0  6.4 0.8 0  6.6 0.8 0  6.8 0.8 0  7 0.8 0  7.2 0.8 0  7.4 0.8 0  7.6 0.8 0  7.8 0.8 0  8 0.8 0  8.199999999999999 0.8 0  8.4 0.8 0  8.6 0.8 0  8.800000000000001 0.8 0  9 0.8 0  9.199999999999999 0.8 0  9.4 0.8 0  9.6 0.8 0  9.800000000000001 0.8 0  10 0.8 0  0 1 0  0.2 1 0  0.4 1 0  0.6 1 0  0.8 1 0  1 1 0  1.2 1 0  1.4 1 0  1.6 1 0  1.8 1 0  2 1 0  2.2 1 0  2.4 1 0  2.6 1 0  2.8 1 0  3 1 0  3.2 1 0  3.4 1 0  3.6 1 0  3.8 1 0  4 1 0  4.2 1 0  4.4 1 0  4.6 1 0  4.8 1 0  5 1 0  5.2 1 0  5.4 1 0  5.6 1 0  5.8 1 0  6 1 0  6.2 1 0  6.4 1 0  6.6 1 0  6.8 1 0  7 1 0  7.2 1 0  7.4 1 0  7.6 1 0  7.8 1 0  8 1 0  8.199999999999999 1 0  8.4 1 0  8.6 1 0  8.800000000000001 1 0  9 1 0  9.199999999999999 1 0  9.4 1 0  9.6 1 0  9.800000000000001 1 0  10 1 0  0 1.2 0  0.2 1.2 0  0.4 1.2 0  0.6 1.2 0  0.8 1.2 0  1 1.2 0  1.2 1.2 0  1.4 1.2 0  1.6 1.2 0  1.8 1.2 0  2 1.2 0  2.2 1.2 0  2.4 1.2 0  2.6 1.2 0  2.8 1.2 0  3 1.2 0  3.2 1.2 0  3.4 1.2 0  3.6 1.2 0  3.8 1.2 0  4 1.2 0  4.2 1.2 0  4.4 1.2 0  4.6 1.2 0  4.8 1.2 0  5 1.2 0  5.2 1.2 0  5.4 1.2 0  5.6 1.2 0  5.8 1.2 0  6 1.2 0  6.2 1.2 0  6.4 1.2 0  6.6 1.2 0  6.8 1.2 0  7 1.2 0  7.2 1.2 0  7.4 1.2 0  7.6 1.2 0  7.8 1.2 0  8 1.2 0  8.199999999999999 1.2 0  8.4 1.2 0  8.6 1.2 0  8.800000000000001 1.2 0  9 1.2 0  9.199999999999999 1.2 0  9.4 1.2 0  9.6 1.2 0  9.800000000000001 1.2 0  10 1.2 0  0 1.4 0  0.2 1.4 0  0.4 1.4 0  0.6 1.4 0  0.8 1.4 0  1 1.4 0  1.2 1.4 0  1.4 1.4 0  1.6 1.4 0  1.8 1.4 0  2 1.4 0  2.2 1.4 0  2.4 1.4 0  2.6 1.4 0  2.8 1.4 0  3 1.4 0  3.2 1.4 0  3.4 1.4 0  3.6 1.4 0  3.8 1.4 0  4 1.4 0  4.2 1.4 0  4.4 1.4 0  4.6 1.4 0  4.8 1.4 0  5 1.4 0  5.2 1.4 0  5.4 1.4 0  5.6 1.4 0  5.8 1.4 0  6 1.4 0  6.2 1.4 0  6.4 1.4 0  6.6 1.4 0  6.8 1.4 0  7 1.4 0  7.2 1.4 0  7.4 1.4 0  7.6 1.4 0  7.8 1.4 0  8 1.4 0  8.199999999999999 1.4 0  8.4 1.4 0  8.6 1.4 0  8.800000000000001 1.4 0  9 1.4 0  9.199999999999999 1.4 0  9.4 1.4 0  9.6 1.4 0  9.800000000000001 1.4 0  10 1.4 0  0 1.6 0  0.2 1.6 0  0.4 1.6 0  0.6 1.6 0  0.8 1.6 0  1 1.6 0  1.2 1.6 0  1.4 1.6 0  1.6 1.6 0  1.8 1.6 0  2 1.6 0  2.2 1.6 0  2.4 1.6 0  2.6 1.6 0  2.8 1.6 0  3 1.6 0  3.2 1.6 0  3.4 1.6 0  3.6 1.6 0  3.8 1.6 0  4 1.6 0  4.2 1.6 0  4.4 1.6 0  4.6 1.6 0  4.8 1.6 0  5 1.6 0  5.2 1.6 0  5.4 1.6 0  5.6 1.6 0  5.8 1.6 0  6 1.6 0  6.2 1.6 0  6.4 1.6 0  6.6 1.6 0  6.8 1.6 0  7 1.6 0  7.2 1.6 0  7.4 1.6 0  7.6 1.6 0  7.8 1.6 0  8 1.6 0  8.199999999999999 1.6 0  8.4 1.6 0  8.6 1.6 0  8.800000000000001 1.6 0  9 1.6 0  9.199999999999999 1.6 0  9.4 1.6 0  9.6 1.6 0  9.800000000000001 1.6 0  10 1.6 0  0 1.8 0  0.2 1.8 0  0.4 1.8 0  0.6 1.8 0  0.8 1.8 0  1 1.8 0  1.2 1.8 0  1.4 1.8 0  1.6 1.8 0  1.8 1.8 0  2 1.8 0  2.2 1.8 0  2.4 1.8 0  2.6 1.8 0  2.8 1.8 0  3 1.8 0  3.2 1.8 0  3.4 1.8 0  3.6 1.8 0  3.8 1.8 0  4 1.8 0  4.2 1.8 0  4.4 1.8 0  4.6 1.8 0  4.8 1.8 0  5 1.8 0  5.2 1.8 0  5.4 1.8 0  5.6 1.8 0  5.8 1.8 0  6 1.8 0  6.2 1.8 0  6.4 1.8 0  6.6 1.8 0  6.8 1.8 0  7 1.8 0  7.2 1.8 0  7.4 1.8 0  7.6 1.8 0  7.8 1.8 0  8 1.8 0  8.199999999999999 1.8 0  8.4 1.8 0  8.6 1.8 0  8.800000000000001 1.8 0  9 1.8 0  9.199999999999999 1.8 0  9.4 1.8 0  9.6 1.8 0  9.800000000000001 1.8 0  10 1.8 0  0 2 0  0.2 2 0  0.4 2 0  0.6 2 0  0.8 2 0  1 2 0  1.2 2 0  1.4 2 0  1.6 2 0  1.8 2 0  2 2 0  2.2 2 0  2.4 2 0  2.6 2 0  2.8 2 0  3 2 0  3.2 2 0  3.4 2 0  3.6 2 0  3.8 2 0  4 2 0  4.2 2 0  4.4 2 0  4.6 2 0  4.8 2 0  5 2 0  5.2 2 0  5.4 2 0  5.6 2 0  5.8 2 0  6 2 0  6.2 2 0  6.4 2 0  6.6 2 0  6.8 2 0  7 2 0  7.2 2 0  7.4 2 0  7.6 2 0  7.8 2 0  8 2 0  8.199999999999999 2 0  8.4 2 0  8.6 2 0  8.800000000000001 2 0  9 2 0  9.199999999999999 2 0  9.4 2 0  9.6 2 0  9.800000000000001 2 0  10 2 0  0 2.2 0  0.2 2.2 0  0.4 2.2 0  0.6 2.2 0  0.8 2.2 0  1 2.2 0  1.2 2.2 0  1.4 2.2 0  1.6 2.2 0  1.8 2.2 0  2 2.2 0  2.2 2.2 0  2.4 2.2 0  2.6 2.2 0  2.8 2.2 0  3 2.2 0  3.2 2.2 0  3.4 2.2 0  3.6 2.2 0  3.8 2.2 0  4 2.2 0  4.2 2.2 0  4.4 2.2 0  4.6 2.2 0  4.8 2.2 0  5 2.2 0  5.2 2.2 0  5.4 2.2 0  5.6 2.2 0  5.8 2.2 0  6 2.2 0  6.2 2.2 0  6.4 2.2 0  6.6 2.2 0  6.8 2.2 0  7 2.2 0  7.2 2.2 0  7.4 2.2 0  7.6 2.2 0  7.8 2.2 0  8 2.2 0  8.199999999999999 2.2 0  8.4 2.2 0  8.6 2.2 0  8.800000000000001 2.2 0  9 2.2 0  9.199999999999999 2.2 0  9.4 2.2 0  9.6 2.2 0  9.800000000000001 2.2 0  10 2.2 0  0 2.4 0  0.2 2.4 0  0.4 2.4 0  0.6 2.4 0  0.8 2.4 0  1 2.4 0  1.2 2.4 0  1.4 2.4 0  1.6 2.4 0  1.8 2.4 0  2 2.4 0  2.2 2.4 0  2.4 2.4 0  2.6 2.4 0  2.8 2.4 0  3 2.4 0  3.2 2.4 0  3.4 2.4 0  3.6 2.4 0  3.8 2.4 0  4 2.4 0  4.2 2.4 0  4.4 2.4 0  4.6 2.4 0  4.8 2.4 0  5 2.4 0  5.2 2.4 0  5.4 2.4 0  5.6 2.4 0  5.8 2.4 0  6 2.4 0  6.2 2.4 0  6.4 2.4 0  6.6 2.4 0  6.8 2.4 0  7 2.4 0  7.2 2.4 0  7.4 2.4 0  7.6 2.4 0  7.8 2.4 0  8 2.4 0  8.199999999999999 2.4 0  8.4 2.4 0  8.6 2.4 0  8.800000000000001 2.4 0  9 2.4 0  9.199999999999999 2.4 0  9.4 2.4 0  9.6 2.4 0  9.800000000000001 2.4 0  10 2.4 0  0 2.6 0  0.2 2.6 0  0.4 2.6 0  0.6 2.6 0  0.8 2.6 0  1 2.6 0  1.2 2.6 0  1.4 2.6 0  1.6 2.6 0  1.8 2.6 0  2 2.6 0  2.2 2.6 0  2.4 2.6 0  2.6 2.6 0  2.8 2.6 0  3 2.6 0  3.2 2.6 0  3.4 2.6 0  3.6 2.6 0  3.8 2.6 0  4 2.6 0  4.2 2.6 0  4.4 2.6 0  4.6 2.6 0  4.8 2.6 0  5 2.6 0  5.2 2.6 0  5.4 2.6 0  5.6 2.6 0  5.8 2.6 0  6 2.6 0  6.2 2.6 0  6.4 2.6 0  6.6 2.6 0  6.8 2.6 0  7 2.6 0  7.2 2.6 0  7.4 2.6 0  7.6 2.6 0  7.8 2.6 0  8 2.6 0  8.199999999999999 2.6 0  8.4 2.6 0  8.6 2.6 0  8.800000000000001 2.6 0  9 2.6 0  9.199999999999999 2.6 0  9.4 2.6 0  9.6 2.6 0  9.800000000000001 2.6 0  10 2.6 0  0 2.8 0  0.2 2.8 0  0.4 2.8 0  0.6 2.8 0  0.8 2.8 0  1 2.8 0  1.2 2.8 0  1.4 2.8 0  1.6 2.8 0  1.8 2.8 0  2 2.8 0  2.2 2.8 0  2.4 2.8 0  2.6 2.8 0  2.8 2.8 0  3 2.8 0  3.2 2.8 0  3.4 2.8 0  3.6 2.8 0  3.8 2.8 0  4 2.8 0  4.2 2.8 0  4.4 2.8 0  4.6 2.8 0  4.8 2.8 0  5 2.8 0  5.2 2.8 0  5.4 2.8 0  5.6 2.8 0  5.8 2.8 0  6 2.8 0  6.2 2.8 0  6.4 2.8 0  6.6 2.8 0  6.8 2.8 0  7 2.8 0  7.2 2.8 0  7.4 2.8 0  7.6 2.8 0  7.8 2.8 0  8 2.8 0  8.199999999999999 2.8 0  8.4 2.8 0  8.6 2.8 0  8.800000000000001 2.8 0  9 2.8 0  9.199999999999999 2.8 0  9.4 2.8 0  9.6 2.8 0  9.800000000000001 2.8 0  10 2.8 0  0 3 0  0.2 3 0  0.4 3 0  0.6 3 0  0.8 3 0  1 3 0  1.2 3 0  1.4 3 0  1.6 3 0  1.8 3 0  2 3 0  2.2 3 0  2.4 3 0  2.6 3 0  2.8 3 0  3 3 0  3.2 3 0  3.4 3 0  3.6 3 0  3.8 3 0  4 3 0  4.2 3 0  4.4 3 0  4.6 3 0  4.8 3 0  5 3 0  5.2 3 0  5.4 3 0  5.6 3 0  5.8 3 0  6 3 0  6.2 3 0  6.4 3 0  6.6 3 0  6.8 3 0  7 3 0  7.2 3 0  7.4 3 0  7.6 3 0  7.8 3 0  8 3 0  8.199999999999999 3 0  8.4 3 0  8.6 3 0  8.800000000000001 3 0  9 3 0  9.199999999999999 3 0  9.4 3 0  9.6 3 0  9.800000000000001 3 0  10 3 0  0 3.2 0  0.2 3.2 0  0.4 3.2 0  0.6 3.2 0  0.8 3.2 0  1 3.2 0  1.2 3.2 0  1.4 3.2 0  1.6 3.2 0  1.8 3.2 0  2 3.2 0  2.2 3.2 0  2.4 3.2 0  2.6 3.2 0  2.8 3.2 0  3 3.2 0  3.2 3.2 0  3.4 3.2 0  3.6 3.2 0  3.8 3.2 0  4 3.2 0  4.2 3.2 0  4.4 3.2 0  4.6 3.2 0  4.8 3.2 0  5 3.2 0  5.2 3.2 0  5.4 3.2 0  5.6 3.2 0  5.8 3.2 0  6 3.2 0  6.2 3.2 0  6.4 3.2 0  6.6 3.2 0  6.8 3.2 0  7 3.2 0  7.2 3.2 0  7.4 3.2 0  7.6 3.2 0  7.8 3.2 0  8 3.2 0  8.199999999999999 3.2 0  8.4 3.2 0  8.6 3.2 0  8.800000000000001 3.2 0  9 3.2 0  9.199999999999999 3.2 0  9.4 3.2 0  9.6 3.2 0  9.800000000000001 3.2 0  10 3.2 0  0 3.4 0  0.2 3.4 0  0.4 3.4 0  0.6 3.4 0  0.8 3.4 0  1 
[...]
<PointData  Scalars="f_5"> 
<DataArray  type="Float64"  Name="f_5"  format="ascii">3.8005262648045775e-02  3.0423957072478874e-01  4.5349410976101584e-01  5.5614569741334963e-01  6.3380717919045770e-01  6.9605953758550643e-01  7.4896221030598220e-01  7.9676546628461375e-01  8.4290567572352082e-01  8.9050641481086013e-01  9.4268931969676295e-01  1.0027776354842259e+00  1.0744319831817166e+00  1.1617081245053025e+00  1.2688140468896039e+00  1.3983816438324421e+00  1.5436337351551563e+00  1.6667311919181200e+00  1.7070699010730526e+00  1.7195558500012595e+00  1.8506888773119892e+00  1.8409901449616515e+00  1.8422449398465430e+00  1.8378304994251786e+00  1.8343542905913808e+00  1.8347133482314575e+00  1.8397131231430399e+00  1.8482128316531141e+00  1.8570823197273820e+00  1.8602507676183566e+00  1.8602126684269897e+00  1.7475695896639882e+00  1.7315091762998660e+00  1.7076783006446608e+00  1.5933945478419909e+00  1.4455496884361638e+00  1.3104403803645537e+00  1.1979398053950809e+00  1.1059423987581163e+00  1.0302040550083416e+00  9.6655623348978759e-01  9.1123320226272098e-01  8.6082164171154840e-01  8.1212332715246038e-01  7.6195040444042827e-01  7.0681392558635858e-01  6.4242161793633556e-01  5.6268048344045507e-01  4.5798010055327049e-01  3.0667351205998289e-01  3.8515531308543863e-02  1.8034698489232930e-02  1.8884465786757632e-01  3.1089264619901880e-01  4.0632056172066267e-01  4.7937049040634810e-01  5.3918436278589787e-01  5.9055430285327115e-01  6.3744259445027729e-01  6.8311128558927114e-01  7.3059055478644686e-01  7.8295236820678271e-01  8.4351270606599060e-01  9.1599581461761681e-01  1.0046918320103491e+00  1.1149768807421496e+00  1.2549932755259903e+00  1.4305526676676985e+00  1.6032650129759596e+00  1.6632730880037798e+00  1.6232771290956889e+00  1.7085820637528357e+00  1.6395132276068527e+00  1.6276572980935573e+00  1.6216093779651077e+00  1.6181071893268650e+00  1.6182170752397107e+00  1.6224038892116779e+00  1.6299674354707350e+00  1.6394114781785603e+00  1.6521314278964141e+00  1.7036137427937472e+00  1.6318201714836253e+00  1.6854659361632525e+00  1.6534086988055712e+00  1.4878526648507198e+00  1.3051317549161874e+00  1.1574721254074882e+00  1.0413002782543457e+00  9.4776521094387334e-01  8.7114142190331456e-01  8.0698271758063511e-01  7.5144769667698164e-01  7.0112587136803395e-01  6.5286855586940751e-01  6.0358263466229889e-01  5.4995454984695957e-01  4.8798037973460295e-01  4.1283292761411822e-01  3.1534373056870429e-01  1.9121710861339045e-01  1.8411858519846804e-02  9.1201224355019379e-03  1.2394867931076908e-01  2.1723347628700643e-01  2.9519817103515528e-01  3.5902125766041104e-01  4.1281071909896710e-01  4.6014871121710421e-01  5.0415966339851848e-01  5.4768136382068755e-01  5.9347325391358863e-01  6.4440123017278406e-01  7.0359720444639651e-01  7.7460855068795631e-01  8.6157153699971278e-01  9.6968213191177943e-01  1.1063560822831229e+00  1.2756592472360249e+00  1.4414088380417069e+00  1.5073619564096670e+00  1.4894581898723218e+00  1.5822134606837479e+00  1.5232477295681983e+00  1.5136229020387399e+00  1.5080574535315427e+00  1.5047226373164926e+00  1.5049229692753572e+00  1.5091912561102609e+00  1.5168785508957023e+00  1.5264400075141362e+00  1.5388120065921636e+00  1.5899329681779821e+00  1.5023004855009550e+00  1.5347801388501168e+00  1.4917630174646790e+00  1.3320068171133868e+00  1.1562791440193039e+00  1.0123796390361364e+00  8.9850786464068166e-01  8.0675418333137239e-01  7.3161491626184139e-01  6.6880543050892771e-01  6.1467137238646830e-01  5.6599550429491285e-01  5.1984133170499369e-01  4.7338983967729653e-01  4.2375298938711975e-01  3.6776413731011337e-01  3.0180529452906069e-01  2.2174085530702339e-01  1.2633397955452741e-01  9.5218695821753883e-03  6.0801623344072840e-03  8.4190627199961635e-02  1.5214104555176652e-01  2.1311491335213201e-01  2.6561569162640403e-01  3.1172838841343953e-01  3.5360546487365407e-01  3.9357082046179009e-01  4.3395622191203043e-01  4.7717086419186683e-01  5.2580067234469952e-01  5.8271787751936388e-01  6.5119858235385497e-01  7.3507313904263383e-01  8.3917821989065566e-01  9.7021533399415405e-01  1.1302131287532273e+00  1.2837688150822675e+00  1.3510691852449626e+00  1.3554546741556108e+00  1.4551602664881815e+00  1.4081087940994905e+00  1.3999162981838775e+00  1.3946001944361588e+00  1.3913669537309143e+00  1.3916140794126077e+00  1.3959235685427622e+00  1.4037343050856383e+00  1.4135411087980958e+00  1.4257527846035865e+00  1.4718273513808233e+00  1.3754329818710527e+00  1.3821219127138131e+00  1.3332144849699528e+00  1.1854331880235314e+00  1.0201148279235444e+00  8.8237841034973608e-01  7.7271882010030646e-01  6.8413785837994523e-01  6.1153800396157665e-01  5.5096930996860904e-01  4.9906976579053547e-01  4.5289569687742287e-01  4.0979899487161991e-01  3.6731516568879491e-01  3.2306339972702436e-01  2.7467683838904805e-01  2.1996541391968674e-01  1.5681589597806517e-01  8.6666706462019780e-02  6.5101889031404297e-03  3.5893464294577087e-03  5.7239775960726040e-02  1.0566226115563444e-01  1.5148609493171139e-01  1.9294282792867828e-01  2.3091936340747748e-01  2.6669977769779896e-01  3.0195046415182875e-01  3.3853352040149154e-01  3.7849835265372928e-01  4.2412473286230362e-01  4.7799281280660749e-01  5.4307125814481438e-01  6.2284708007120615e-01  7.2173134158045660e-01  8.4544894830000228e-01  9.9361693976981902e-01  1.1321909082895099e+00  1.1981060638356527e+00  1.2193154050881425e+00  1.3218644855819439e+00  1.2906940497447437e+00  1.2848764887344328e+00  1.2803482806565603e+00  1.2774496344509076e+00  1.2777875552790605e+00  1.2820407532080746e+00  1.2897184908373689e+00  1.2992255735626188e+00  1.3100232825687104e+00  1.3452959265943976e+00  1.2459686789587827e+00  1.2318827027946251e+00  1.1806943105341245e+00  1.0479645811681906e+00  8.9575191031340384e-01  7.6595789419722693e-01  6.6173049421184249e-01  5.7730502158505337e-01  5.0807920135034323e-01  4.5048141245307560e-01  4.0148161732278137e-01  3.5844348150342886e-01  3.1903335812585304e-01  2.8114996747436621e-01  2.4288228509989085e-01  2.0251907246561182e-01  1.5873638097270210e-01  1.1061749163828369e-01  5.9870101346291740e-02  4.0610636163563802e-03  1.7674144360117481e-03  3.7689500105036904e-02  7.0986093412972781e-02  1.0417315846586105e-01  1.3564041172320920e-01  1.6578586427325331e-01  1.9538614602284146e-01  2.2564445594571481e-01  2.5803729703645445e-01  2.9428527744381372e-01  3.3636980428838842e-01  3.8657876697554422e-01  4.4757221085866522e-01  5.2249110039577440e-01  6.1528129293524125e-01  7.3055700548342106e-01  8.6575463362389793e-01  9.8922361496886524e-01  1.0529161732528394e+00  1.0855791172618012e+00  1.1850112851190007e+00  1.1716418661346018e+00  1.1687640481011892e+00  1.1655111453987590e+00  1.1632888339457492e+00  1.1638522728638967e+00  1.1679283285733322e+00  1.1751310231067624e+00  1.1838305117805001e+00  1.1924292838848991e+00  1.2137101151940348e+00  1.1183598977953710e+00  1.0897635382115760e+00  1.0377848251323059e+00  9.2013175813834303e-01  7.8203707161742886e-01  6.6126856716743176e-01  5.6328034750569544e-01  4.8369080786853041e-01  4.1845139395388992e-01  3.6437461878372002e-01  3.1876265355909617e-01  2.7928433033779965e-01  2.4390980064697521e-01  2.1086721278498560e-01  1.7862887912232109e-01  1.4594311554286687e-01  1.1198992634860243e-01  7.6339689750872117e-02  4.0537243852120569e-02  2.2944548290150931e-03  2.5837273544609843e-04  2.2772260740251685e-02  4.4123852906867336e-02  6.6819063417694738e-02  8.9525690815758507e-02  1.1244642194185425e-01  1.3608378624054923e-01  1.6132929751757213e-01  1.8935882151852715e-01  2.2160810202404488e-01  2.5978338260177847e-01  3.0589758683311680e-01  3.6232435486952125e-01  4.3188730496312638e-01  5.1807169376302153e-01  6.2443775297188642e-01  7.4707541055434479e-01  8.5796141620566468e-01  9.2060180586534401e-01  9.6001685444520335e-01  1.0488447771609717e+00  1.0532394943562586e+00  1.0538600539893179e+00  1.0526700600177459e+00  1.0519040189323023e+00  1.0531476072237844e+00  1.0569357232676857e+00  1.0630487335988226e+00  1.0701682529544894e+00  1.0759183345290773e+00  1.0820433218688559e+00  9.9919602233560378e-01  9.6221005978463348e-01  9.0881219984198236e-01  8.0317091164385679e-01  6.7828076715446006e-01  5.6678500280248756e-01  4.7539458132820989e-01  4.0100809930882508e-01  3.4013325589555482e-01  2.8993518904320470e-01  2.4801960842895690e-01  2.1233673118041632e-01  1.8113141942102071e-01  1.5291241082461565e-01  1.2644671590128725e-01  1.0078824418941758e-01  7.5386246898489495e-02  5.0004179603387808e-02  2.5903057923407975e-02  8.5467540239581301e-04  -1.0678917867208708e-03  1.0865269184592317e-02  2.2476582771346218e-02  3.6337563303617447e-02  5.1367955043220365e-02  6.7708180025211465e-02  8.5714952257953683e-02  1.0607010551766236e-01  1.2971554612507821e-01  1.5784087064355809e-01  1.9189879248409425e-01  2.3364391061128784e-01  2.8518770031981322e-01  3.4907463680328171e-01  4.2838259133415957e-01  5.2589550462880641e-01  6.3756895388531931e-01  7.4001328813433376e-01  8.0408001637459303e-01  8.4682650407921067e-01  9.1801488141376730e-01  9.3756719458982074e-01  9.4264860283096397e-01  9.4499379925187610e-01  9.4715861631123299e-01  9.5001148088744125e-01  9.5360266904187085e-01  9.5782122478458498e-01  9.6201384029121317e-01  9.6387090562687805e-01  9.5627895583633971e-01  8.9350958072446929e-01  8.5319718499272679e-01  7.9635391232496944e-01  6.9775185223216629e-01  5.8365208553065895e-01  4.8096833194265853e-01  3.9621360635477604e-01  3.2717846269488582e-01  2.7085907304736989e-01  2.2472614955266748e-01  1.8665405171920021e-01  1.5484765389535310e-01  1.2779601287172024e-01  1.0424260216861279e-01  8.3177447282664019e-02  6.3855093778814168e-02  4.5864377125416182e-02  2.9028610896920767e-02  1.4350038357472726e-02  -3.8803479876829830e-04  -2.3041105017234738e-03  9.2225642243372460e-04  4.2608045555556336e-03  1.0462832216904330e-02  1.8645659216040101e-02  2.8949010355853219e-02  4.1655168512813680e-02  5.7302509112314444e-02  7.6645589418681895e-02  1.0065273583042679e-01  1.3052994569690285e-01  1.6777012805484756e-01  2.1421995101496202e-01  2.7215357620826464e-01  3.4429608382080268e-01  4.3299495887808026e-01  5.3516005625423302e-01  6.3274204651480914e-01  7.0099752921968284e-01  7.4617475811274336e-01  7.9847660208609306e-01  8.2635088354309705e-01  8.3768374875266327e-01  8.4538404088492780e-01  8.5191626005377352e-01  8.5737177831692168e-01  8.6134876360670298e-01  8.6366038789260324e-01  8.6404630539976401e-01  8.6059525641687806e-01  8.4472046616954044e-01  8.0216814776231915e-01  7.6066883657980233e-01  6.9772319962907126e-01  6.0181806437116359e-01  4.9627888610247500e-01  4.0193562705756136e-01  3.2385406671482170e-01  2.6026864847058073e-01  2.0858780844001829e-01  1.6657078401815878e-01  1.3235225634885114e-01  1.0438260366850095e-01  8.1376235080868831e-02  6.2276712411321419e-02  4.6244017727056511e-02  3.2663967153581670e-02  2.1192832051338560e-02  1.1652759631918518e-02  4.8403767024263267e-03  -1.5251416873943244e-03  -3.5179479838898992e-03  -7.7901843688829974e-03  -1.1835176335216767e-02  -1.2550695233426232e-02  -1.0674692594415324e-02  -6.0320193906956083e-03  1.6324168500863117e-03  1.2761572191708389e-02  2.7955367090380098e-02  4.7970400494700603e-02  7.3750359755323694e-02  1.0648885495784115e-01  1.4771453209071136e-01  1.9937139413844576e-01  2.6380257790410466e-01  3.4305974223335295e-01  4.3542918679571219e-01  5.2853197176608091e-01  6.0201409842432996e-01  6.5171378597805885e-01  6.9276077075911413e-01  7.2199939905222721e-01  7.3980123397136399e-01  7.5302856077602998e-01  7.6385946983740038e-01  7.7227833714820970e-01  7.7776276423775381e-01  7.7984014122352219e-01  7.7794864156753463e-01  7.7034543039216274e-01  7.5225731988707256e-01  7.1990711910102889e-01  6.7447089217538980e-01  6.0398647941578953e-01  5.1017137911425625e-01  4.1319935706283101e-01  3.2756878643642856e-01  2.5650200834730580e-01  1.9852658199205228e-01  1.5149641291549218e-01  1.1352046612797709e-01  8.3037797165702212e-02  5.8766269074228973e-02  3.9644525908922645e-02  2.4793033802292423e-02  1.3500712125328128e-02  5.2337352765735685e-03  -3.3050586406333161e-04  -3.4048614465183027e-03  -3.3468407583636750e-03  -2.6216779114424907e-03  -4.7651199820489482e-03  -1.5828197775187895e-02  -2.6844206295993569e-02  -3.4124306992857928e-02  -3.8307851305029471e-02  -3.9151373016134729e-02  -3.6382298075275814e-02  -2.9606956548668458e-02  -1.8351524970949051e-02  -2.0731670513044554e-03  1.9870477296415300e-02  4.8297976827082818e-02  8.4312430404312452e-02  1.2939707410636422e-01  1.8538737387572088e-01  2.5393894087898711e-01  3.3438525374141320e-01  4.1940323639606747e-01  4.9452060648141938e-01  5.5020173104001791e-01  5.9027535023199396e-01  6.1972640962079006e-01  6.4108272475436878e-01  6.5748736668159480e-01  6.7083259136836371e-01  6.8169989071126968e-01  6.8980047637098696e-01  6.9419190600174796e-01  6.9335891760511337e-01  6.8508026323672444e-01  6.6622743101584880e-01  6.3310074801549510e-01  5.8073651388791903e-01  5.0624428499467145e-01  4.1842323294267497e-01  3.3215016430814787e-01  2.5629702137267807e-01  1.9275557065586998e-01  1.4050607450637875e-01  9.7994379423040318e-02  6.3813850331608510e-02  3.6802091120800025e-02  1.5996351312966499e-02  5.7316872760761011e-04  -1.0188054735189543e-02  -1.6909036297493334e-02  -2.0091375326443669e-02  -2.0077089990879086e-02  -1.7141530111063803e-02  -1.0751414125110392e-02  -3.7290904106639781e-03  -6.0969996689354952e-03  -2.3643880046573491e-02  -4.1628447489012760e-02  -5.5472925969001129e-02  -6.5760058522463125e-02  -7.2137368039612057e-02  -7.4257390313678895e-02  -7.1716640808053511e-02  -6.4131485570803032e-02  -5.1179152600599707e-02  -3.2577136364477885e-02  -7.9917343248645297e-03  2.3105721353945730e-02  6.1571374707725716e-02  1.0858449799067055e-01  1.6525740505080777e-01  2.3137405307994938e-01  3.0303254196298313e-01  3.7151818477515924e-01  4.2791875148569364e-01  4.6983665105488032e-01  5.0018347759892334e-01  5.2239778698338801e-01  5.3942194068821669e-01  5.5362623388376075e-01  5.6639075040050324e-01  5.7768793767089388e-01  5.8598665558078478e-01  5.8854503210451314e-01  5.8195289198254840e-01  5.6259537724546937e-01  5.2692223350997713e-01  4.7274569245384562e-01  4.0297255130266518e-01  3.2659986468153968e-01  2.5311760616157819e-01  1.8775977672303854e-01  1.3189752229235749e-01  8.5152970788366505e-02  4.6716536047500611e-02  1.5821801337989383e-02  -8.1753063241889346e-03  -2.5848757409404913e-02  -3.7765422647178019e-02  -4.4510677897335656e-02  -4.6668057998072936e-02  -4.4766558086633976e-02  -3.9215805943782107e-02  -3.0384703274613220e-02  -1.7808051717320379e-02  -4.8932730772630320e-03  -7.5625541374670464e-03  -3.1620452527898149e-02  -5.6927180861067440e-02  -7.7651649386984059e-02  -9.4364423272917136e-02  -1.0655127378993522e-01  -1.1370837932202851e-01  -1.1533735358638982e-01  -1.1109026425742916e-01  -1.0086627906102881e-01  -8.4814558212439814e-02  -6.3225665872539527e-02  -3.6325544110784987e-02  -4.0590049469312979e-03  3.3980504951657595e-02  7.8293226477945746e-02  1.2871199667415420e-01  1.8317563502370399e-01  2.3697670967653300e-01  2.8430843890920099e-01  3.2169511512287235e-01  3.4940339574830187e-01  3.6984822312884846e-01  3.8604667996268988e-01  4.0081618027805754e-01  4.1590117040619690e-01  4.3119787253295166e-01  4.4456734414949595e-01  4.5233948013512604e-01  4.5030134417124013e-01  4.3476530374312711e-01  4.0353181585864539e-01  3.5712716787103671e-01  2.9976865123001051e-01  2.3804156744189073e-01  1.7784211370675040e-01  1.2263991756566478e-01  7.3828665745872740e-02  3.1759560092673764e-02  -3.5265499724530113e-03  -3.2011005852566728e-02  -5.3691473889130516e-02  -6.8677553797823240e-02  -7.7266993976798745e-02  -7.9952496686351113e-02  -7.7356728853862300e-02  -7.0120623058085876e-02  -5.8786810673544528e-02  -4.3856183618481689e-02  -2.4888562419626684e-02  -6.1592339173268864e-03  -9.2053551998781038e-03  -4.0079317334082980e-02  -7.3343651367841295e-02  -1.0151513191330128e-01  -1.2520309476954913e-01  -1.4367040001183212e-01  -1.5614546668014506e-01  -1.6191797634515787e-01  -1.6059905236795069e-01  -1.5230067615083620e-01  -1.3767779181459777e-01  -1.1780893884130457e-01  -9.3889457749181129e-02  -6.6848582250315022e-02  -3.7135484016098293e-02  -4.8541422736431460e-03  2.9741013199679370e-02  6.5563406360290913e-02  1.0030672368730435e-01  1.3103578446950476e-01  1.5572613094347335e-01  1.7443564243346069e-01  1.8913700991050886e-01  2.0277699685110745e-01  2.1816701030230748e-01  2.3681924890448283e-01  2.5810138742450478e-01  2.7915244158690095e-01  2.9562176632150428e-01  3.0293147074439342e-01  2.9758227052872349e-01  2.7813303644651116e-01  2.4571193109833603e-01  2.0375264685336128e-01  1.5672550063397669e-01  1.0859796945803582e-01  6.2080519461027474e-02  1.8802682650463014e-02  -2.0142128353702611e-02  -5.3782577068489781e-02  -8.1167459227611483e-02  -1.0150634450143176e-01  -1.1436613796019626e-01  -1.1977745370770314e-01  -1.1821285023050181e-01  -1.1045111695176534e-01  -9.7366423427339185e-02  -7.9722731314498127e-02  -5.8197069565294218e-02  -3.2320719176931502e-02  -7.5716607490869418e-03  -1.1097605037979647e-02  -4.9259287538633317e-02  -9.1240708557907502e-02  -1.2753782156045407e-01  -1.5883032684473294e-01  -1.8410357149695772e-01  -2.0218661777564040e-01  -2.1202867294777136e-01  -2.1312742500968679e-01  -2.0578860583028205e-01  -1.9121382722499475e-01  -1.7142728519157799e-01  -1.4884717737423034e-01  -1.2560032100503740e-01  -1.0306180438159765e-01  -8.1893308466473594e-02  -6.2442189438777378e-02  -4.5195626209870852e-02  -3.0967742710916964e-02  -2.0566276807772482e-02  -1.4016146981724188e-02  -9.8904714357474464e-03  -5.3150342069584874e-03  3.2764447780521903e-03  1.8895755343605297e-02  4.2680149130266458e-02  7.3087550807329010e-02  1.0606030586437261e-01  1.3612490330080190e-01  1.5794344366859936e-01  1.6768972479628685e-01  1.6381632032627744e-01  1.4709673344743804e-01  1.2001997332603656e-01  8.5789478445098710e-02  4.7406066482553563e-02  7.2579526997430550e-03  -3.2743441662886251e-02  -7.0775501315274908e-02  -1.0484123179358577e-01  -1.3287045041282430e-01  -1.5311588801647227e-01  -1.6452614781096400e-01  -1.6688410760999609e-01  -1.6074271700348511e-01  -1.4719713623637803e-01  -1.2751897425563705e-01  -1.0280570530798921e-01  -7.3952651969146840e-02  -4.0389704570305676e-02  -9.1677523588753283e-03  -1.3585145084214600e-02  -5.9142846392983249e-02  -1.1043119391948919e-01  -1.5532520853976578e-01  -1.9455574933488878e-01  -2.2680269387585408e-01  -2.5040913116650210e-01  -2.6395718770277099e-01  -2.6687085158464724e-01  -2.5961600976937033e-01  -2.4381452312027885e-01  -2.2246502320194009e-01  -1.9947894744951811e-01  -1.7844728937657500e-01  -1.6174868145385637e-01  -1.5054793356387519e-01  -1.4527309608119765e-01  -1.4603238548471145e-01  -1.5268806334120164e-01  -1.6452478902732301e-01  -1.7966986965782356e-01  -1.9465225568982150e-01  -2.0455244365465092e-01  -2.0399616851159486e-01  -1.8885155404748055e-01  -1.5800317016480117e-01  -1.1427720569194728e-01  -6.3887436210484441e-02  -1.4599848655081529e-02  2.6472555239312041e-02  5.4480652130974659e-02  6.7405775349469815e-02  6.5704148745653460e-02  5.1430335980729887e-02  2.7264811138043948e-02  -4.2006247730061079e-03  -4.0706565103461094e-02  -8.0095934480002309e-02  -1.1984279710947662e-01  -1.5678484534213522e-01  -1.8748035442737482e-01  -2.0905260990030342e-01  -2.1980563201573416e-01  -2.1930599292806338e-01  -2.0826686332319741e-01  -1.8826678504428887e-01  -1.6116806384040208e-01  -1.2853202604083949e-01  -9.1500740726847773e-02  -4.9330142565540851e-02  -1.0981671420224824e-02  -1.8359919588751772e-02  -6.8617599455430653e-02  -1.2915876773280838e-01  -1.8216503069358911e-01  -2.2837055191378580e-01  -2.663017389301236