<?xml version="1.0"?>
<VTKFile type="UnstructuredGrid"  version="0.1"  >
<UnstructuredGrid>
<Piece  NumberOfPoints="33" NumberOfCells="32">
<Points>
<DataArray  type="Float64"  NumberOfComponents="3"  format="ascii">0 0 0  0.03125 0 0  0.0625 0 0  0.09375 0 0  0.125 0 0  0.15625 0 0  0.1875 0 0  0.21875 0 0  0.25 0 0  0.28125 0 0  0.3125 0 0  0.34375 0 0  0.375 0 0  0.40625 0 0  0.4375 0 0  0.46875 0 0  0.5 0 0  0.53125 0 0  0.5625 0 0  0.59375 0 0  0.625 0 0  0.65625 0 0  0.6875 0 0  0.71875 0 0  0.75 0 0  0.78125 0 0  0.8125 0 0  0.84375 0 0  0.875 0 0  0.90625 0 0  0.9375 0 0  0.96875 0 0  1 0 0  </DataArray>
</Points>
<Cells>
<DataArray  type="UInt32"  Name="connectivity"  format="ascii">0 1  1 2  2 3  3 4  4 5  5 6  6 7  7 8  8 9  9 10  10 11  11 12  12 13  13 14  14 15  15 16  16 17  17 18  18 19  19 20  20 21  21 22  22 23  23 24  24 25  25 26  26 27  27 28  28 29  29 30  30 31  31 32  </DataArray>
<DataArray  type="UInt32"  Name="offsets"  format="ascii">2 4 6 8 10 12 14 16 18 20 22 24 26 28 30 32 34 36 38 40 42 44 46 48 50 52 54 56 58 60 62 64 </DataArray>
<DataArray  type="UInt8"  Name="types"  format="ascii">3 3 3 3 3 3 3 3 3 3 3 3 3 3 3 3 3 3 3 3 3 3 3 3 3 3 3 3 3 3 3 3 </DataArray>
</Cells>
<PointData  Scalars="f_32"> 
<DataArray  type="Float64"  Name="f_32"  format="ascii">9.9999999999982880e-01  9.3749999999982714e-01  8.7499999999982503e-01  8.1249999999982525e-01  7.4999999999982769e-01  6.8749999999983713e-01  6.2499999999983269e-01  5.6249999999984301e-01  4.9999999999985328e-01  4.3749999999984107e-01  3.7499999999985062e-01  3.1249999999986688e-01  2.4999999999985817e-01  1.8749999999987474e-01  1.2499999999989056e-01  6.2499999999883739e-02  -1.1049568997873699e-13  -6.2500000000100531e-02  -1.2500000000008685e-01  -1.8750000000005740e-01  -2.5000000000006223e-01  -3.1250000000005046e-01  -3.7500000000004535e-01  -4.3750000000004258e-01  -5.0000000000003220e-01  -5.6250000000002542e-01  -6.2500000000003386e-01  -6.8750000000001821e-01  -7.5000000000001932e-01  -8.1250000000000955e-01  -8.7500000000000544e-01  -9.3750000000000211e-01  -1.0000000000000004e+00  </DataArray> 
</PointData> 
</Piece>
</UnstructuredGrid>
</VTKFile>