<?xml version="1.0"?>
<VTKFile type="UnstructuredGrid"  version="0.1"  >
<UnstructuredGrid>
<Piece  NumberOfPoints="33" NumberOfCells="32">
<Points>
<DataArray  type="Float64"  NumberOfComponents="3"  format="ascii">0 0 0  0.03125 0 0  0.0625 0 0  0.09375 0 0  0.125 0 0  0.15625 0 0  0.1875 0 0  0.21875 0 0  0.25 0 0  0.28125 0 0  0.3125 0 0  0.34375 0 0  0.375 0 0  0.40625 0 0  0.4375 0 0  0.46875 0 0  0.5 0 0  0.53125 0 0  0.5625 0 0  0.59375 0 0  0.625 0 0  0.65625 0 0  0.6875 0 0  0.71875 0 0  0.75 0 0  0.78125 0 0  0.8125 0 0  0.84375 0 0  0.875 0 0  0.90625 0 0  0.9375 0 0  0.96875 0 0  1 0 0  </DataArray>
</Points>
<Cells>
<DataArray  type="UInt32"  Name="connectivity"  format="ascii">0 1  1 2  2 3  3 4  4 5  5 6  6 7  7 8  8 9  9 10  10 11  11 12  12 13  13 14  14 15  15 16  16 17  17 18  18 19  19 20  20 21  21 22  22 23  23 24  24 25  25 26  26 27  27 28  28 29  29 30  30 31  31 32  </DataArray>
<DataArray  type="UInt32"  Name="offsets"  format="ascii">2 4 6 8 10 12 14 16 18 20 22 24 26 28 30 32 34 36 38 40 42 44 46 48 50 52 54 56 58 60 62 64 </DataArray>
<DataArray  type="UInt8"  Name="types"  format="ascii">3 3 3 3 3 3 3 3 3 3 3 3 3 3 3 3 3 3 3 3 3 3 3 3 3 3 3 3 3 3 3 3 </DataArray>
</Cells>
<PointData  Scalars="f_10"> 
<DataArray  type="Float64"  Name="f_10"  format="ascii">0.0000000000000000e+00  3.0273437499999271e-02  5.8593749999998584e-02  8.4960937499997932e-02  1.0937499999999727e-01  1.3183593749999659e-01  1.5234374999999595e-01  1.7089843749999539e-01  1.8749999999999484e-01  2.0214843749999434e-01  2.1484374999999381e-01  2.2558593749999337e-01  2.3437499999999289e-01  2.4121093749999248e-01  2.4609374999999206e-01  2.4902343749999173e-01  2.4999999999999145e-01  2.4902343749999117e-01  2.4609374999999090e-01  2.4121093749999059e-01  2.3437499999999034e-01  2.2558593749999012e-01  2.1484374999998995e-01  2.0214843749998984e-01  1.8749999999998976e-01  1.7089843749998973e-01  1.5234374999998970e-01  1.3183593749998967e-01  1.0937499999998967e-01  8.4960937499989689e-02  5.8593749999989723e-02  3.0273437499989765e-02  -1.0198112981148401e-14  </DataArray> 
</PointData> 
</Piece>
</UnstructuredGrid>
</VTKFile>