<?xml version="1.0"?>
<VTKFile type="UnstructuredGrid"  version="0.1"  >
<UnstructuredGrid>
<Piece  NumberOfPoints="33" NumberOfCells="32">
<Points>
<DataArray  type="Float64"  NumberOfComponents="3"  format="ascii">0 0 0  0.03125 0 0  0.0625 0 0  0.09375 0 0  0.125 0 0  0.15625 0 0  0.1875 0 0  0.21875 0 0  0.25 0 0  0.28125 0 0  0.3125 0 0  0.34375 0 0  0.375 0 0  0.40625 0 0  0.4375 0 0  0.46875 0 0  0.5 0 0  0.53125 0 0  0.5625 0 0  0.59375 0 0  0.625 0 0  0.65625 0 0  0.6875 0 0  0.71875 0 0  0.75 0 0  0.78125 0 0  0.8125 0 0  0.84375 0 0  0.875 0 0  0.90625 0 0  0.9375 0 0  0.96875 0 0  1 0 0  </DataArray>
</Points>
<Cells>
<DataArray  type="UInt32"  Name="connectivity"  format="ascii">0 1  1 2  2 3  3 4  4 5  5 6  6 7  7 8  8 9  9 10  10 11  11 12  12 13  13 14  14 15  15 16  16 17  17 18  18 19  19 20  20 21  21 22  22 23  23 24  24 25  25 26  26 27  27 28  28 29  29 30  30 31  31 32  </DataArray>
<DataArray  type="UInt32"  Name="offsets"  format="ascii">2 4 6 8 10 12 14 16 18 20 22 24 26 28 30 32 34 36 38 40 42 44 46 48 50 52 54 56 58 60 62 64 </DataArray>
<DataArray  type="UInt8"  Name="types"  format="ascii">3 3 3 3 3 3 3 3 3 3 3 3 3 3 3 3 3 3 3 3 3 3 3 3 3 3 3 3 3 3 3 3 </DataArray>
</Cells>
<PointData  Scalars="Temp increase"> 
<DataArray  type="Float64"  Name="Temp increase"  format="ascii">5.0000000000000000e+01  4.8437499999999481e+01  4.6874999999998984e+01  4.5312499999998572e+01  4.3749999999998195e+01  4.2187499999997875e+01  4.0624999999997605e+01  3.9062499999997378e+01  3.7499999999997186e+01  3.5937499999997030e+01  3.4374999999996909e+01  3.2812499999996817e+01  3.1249999999996753e+01  2.9687499999996714e+01  2.8124999999996710e+01  2.6562499999996728e+01  2.4999999999996778e+01  2.3437499999996849e+01  2.1874999999996955e+01  2.0312499999997087e+01  1.8749999999997240e+01  1.7187499999997414e+01  1.5624999999997600e+01  1.4062499999997797e+01  1.2499999999998007e+01  1.0937499999998227e+01  9.3749999999984599e+00  7.8124999999987033e+00  6.2499999999989519e+00  4.6874999999992086e+00  3.1249999999994698e+00  1.5624999999997335e+00  0.0000000000000000e+00  </DataArray> 
</PointData> 
</Piece>
</UnstructuredGrid>
</VTKFile>