<?xml version="1.0"?>
<VTKFile type="UnstructuredGrid"  version="0.1"  >
<UnstructuredGrid>
<Piece  NumberOfPoints="33" NumberOfCells="32">
<Points>
<DataArray  type="Float64"  NumberOfComponents="3"  format="ascii">0 0 0  0.03125 0 0  0.0625 0 0  0.09375 0 0  0.125 0 0  0.15625 0 0  0.1875 0 0  0.21875 0 0  0.25 0 0  0.28125 0 0  0.3125 0 0  0.34375 0 0  0.375 0 0  0.40625 0 0  0.4375 0 0  0.46875 0 0  0.5 0 0  0.53125 0 0  0.5625 0 0  0.59375 0 0  0.625 0 0  0.65625 0 0  0.6875 0 0  0.71875 0 0  0.75 0 0  0.78125 0 0  0.8125 0 0  0.84375 0 0  0.875 0 0  0.90625 0 0  0.9375 0 0  0.96875 0 0  1 0 0  </DataArray>
</Points>
<Cells>
<DataArray  type="UInt32"  Name="connectivity"  format="ascii">0 1  1 2  2 3  3 4  4 5  5 6  6 7  7 8  8 9  9 10  10 11  11 12  12 13  13 14  14 15  15 16  16 17  17 18  18 19  19 20  20 21  21 22  22 23  23 24  24 25  25 26  26 27  27 28  28 29  29 30  30 31  31 32  </DataArray>
<DataArray  type="UInt32"  Name="offsets"  format="ascii">2 4 6 8 10 12 14 16 18 20 22 24 26 28 30 32 34 36 38 40 42 44 46 48 50 52 54 56 58 60 62 64 </DataArray>
<DataArray  type="UInt8"  Name="types"  format="ascii">3 3 3 3 3 3 3 3 3 3 3 3 3 3 3 3 3 3 3 3 3 3 3 3 3 3 3 3 3 3 3 3 </DataArray>
</Cells>
<PointData  Scalars="f_24"> 
<DataArray  type="Float64"  Name="f_24"  format="ascii">0.0000000000000000e+00  -5.2032470703118512e-03  -1.0375976562498711e-02  -1.5487670898435585e-02  -2.0507812499997474e-02  -2.5405883789059391e-02  -3.0151367187496343e-02  -3.4713745117183323e-02  -3.9062499999995337e-02  -4.3167114257807379e-02  -4.6997070312494477e-02  -5.0521850585931616e-02  -5.3710937499993797e-02  -5.6533813476556026e-02  -5.8959960937493325e-02  -6.0958862304680665e-02  -6.2499999999993082e-02  -6.3552856445305575e-02  -6.4086914062493144e-02  -6.4071655273430783e-02  -6.3476562499993519e-02  -6.2271118164056297e-02  -6.0424804687494144e-02  -5.7907104492182039e-02  -5.4687499999994969e-02  -5.0735473632807955e-02  -4.6020507812495996e-02  -4.0512084960934079e-02  -3.4179687499997204e-02  -2.6992797851560366e-02  -1.8920898437498560e-02  -9.9334716796867732e-03  0.0000000000000000e+00  </DataArray> 
</PointData> 
</Piece>
</UnstructuredGrid>
</VTKFile>