<?xml version="1.0"?>
<VTKFile type="UnstructuredGrid"  version="0.1"  >
<UnstructuredGrid>
<Piece  NumberOfPoints="33" NumberOfCells="32">
<Points>
<DataArray  type="Float64"  NumberOfComponents="3"  format="ascii">0 0 0  0.03125 0 0  0.0625 0 0  0.09375 0 0  0.125 0 0  0.15625 0 0  0.1875 0 0  0.21875 0 0  0.25 0 0  0.28125 0 0  0.3125 0 0  0.34375 0 0  0.375 0 0  0.40625 0 0  0.4375 0 0  0.46875 0 0  0.5 0 0  0.53125 0 0  0.5625 0 0  0.59375 0 0  0.625 0 0  0.65625 0 0  0.6875 0 0  0.71875 0 0  0.75 0 0  0.78125 0 0  0.8125 0 0  0.84375 0 0  0.875 0 0  0.90625 0 0  0.9375 0 0  0.96875 0 0  1 0 0  </DataArray>
</Points>
<Cells>
<DataArray  type="UInt32"  Name="connectivity"  format="ascii">0 1  1 2  2 3  3 4  4 5  5 6  6 7  7 8  8 9  9 10  10 11  11 12  12 13  13 14  14 15  15 16  16 17  17 18  18 19  19 20  20 21  21 22  22 23  23 24  24 25  25 26  26 27  27 28  28 29  29 30  30 31  31 32  </DataArray>
<DataArray  type="UInt32"  Name="offsets"  format="ascii">2 4 6 8 10 12 14 16 18 20 22 24 26 28 30 32 34 36 38 40 42 44 46 48 50 52 54 56 58 60 62 64 </DataArray>
<DataArray  type="UInt8"  Name="types"  format="ascii">3 3 3 3 3 3 3 3 3 3 3 3 3 3 3 3 3 3 3 3 3 3 3 3 3 3 3 3 3 3 3 3 </DataArray>
</Cells>
<PointData  Scalars="f_40"> 
<DataArray  type="Float64"  Name="f_40"  format="ascii">0.0000000000000000e+00  2.6040871938065951e-03  5.2070617675773869e-03  7.8060626983631606e-03  1.0396321614581885e-02  1.2971162796018723e-02  1.5522003173826017e-02  1.8038352330523304e-02  2.0507812499997301e-02  2.2916078567501913e-02  2.5246938069658244e-02  2.7482271194454573e-02  2.9602050781246367e-02  3.1584342320756284e-02  3.3405303955074184e-02  3.5039186477657087e-02  3.6458333333329228e-02  3.7633180618282004e-02  3.8532257080074024e-02  3.9122184117631062e-02  3.9367675781246093e-02  3.9231538772579261e-02  3.8674672444657901e-02  3.7656068801876552e-02  3.6132812499996919e-02  3.4060080846147922e-02  3.1391143798825648e-02  2.8077363967893395e-02  2.4068196614581601e-02  1.9311189651487929e-02  1.3751983642577228e-02  7.3343118031815114e-03  0.0000000000000000e+00  </DataArray> 
</PointData> 
</Piece>
</UnstructuredGrid>
</VTKFile>