<?xml version="1.0"?>
<VTKFile type="UnstructuredGrid"  version="0.1"  >
<UnstructuredGrid>
<Piece  NumberOfPoints="33" NumberOfCells="32">
<Points>
<DataArray  type="Float64"  NumberOfComponents="3"  format="ascii">0 0 0  0.03125 0 0  0.0625 0 0  0.09375 0 0  0.125 0 0  0.15625 0 0  0.1875 0 0  0.21875 0 0  0.25 0 0  0.28125 0 0  0.3125 0 0  0.34375 0 0  0.375 0 0  0.40625 0 0  0.4375 0 0  0.46875 0 0  0.5 0 0  0.53125 0 0  0.5625 0 0  0.59375 0 0  0.625 0 0  0.65625 0 0  0.6875 0 0  0.71875 0 0  0.75 0 0  0.78125 0 0  0.8125 0 0  0.84375 0 0  0.875 0 0  0.90625 0 0  0.9375 0 0  0.96875 0 0  1 0 0  </DataArray>
</Points>
<Cells>
<DataArray  type="UInt32"  Name="connectivity"  format="ascii">0 1  1 2  2 3  3 4  4 5  5 6  6 7  7 8  8 9  9 10  10 11  11 12  12 13  13 14  14 15  15 16  16 17  17 18  18 19  19 20  20 21  21 22  22 23  23 24  24 25  25 26  26 27  27 28  28 29  29 30  30 31  31 32  </DataArray>
<DataArray  type="UInt32"  Name="offsets"  format="ascii">2 4 6 8 10 12 14 16 18 20 22 24 26 28 30 32 34 36 38 40 42 44 46 48 50 52 54 56 58 60 62 64 </DataArray>
<DataArray  type="UInt8"  Name="types"  format="ascii">3 3 3 3 3 3 3 3 3 3 3 3 3 3 3 3 3 3 3 3 3 3 3 3 3 3 3 3 3 3 3 3 </DataArray>
</Cells>
<PointData  Scalars="f_48"> 
<DataArray  type="Float64"  Name="f_48"  format="ascii">0.0000000000000000e+00  1.5136718749998610e-02  2.9296874999997242e-02  4.2480468749995920e-02  5.4687499999994643e-02  6.5917968749993436e-02  7.6171874999992312e-02  8.5449218749991271e-02  9.3749999999990299e-02  1.0107421874998943e-01  1.0742187499998866e-01  1.1279296874998798e-01  1.1718749999998741e-01  1.2060546874998691e-01  1.2304687499998658e-01  1.2451171874998634e-01  1.2499999999998627e-01  1.2451171874998633e-01  1.2304687499998654e-01  1.2060546874998689e-01  1.1718749999998741e-01  1.1279296874998802e-01  1.0742187499998873e-01  1.0107421874998952e-01  9.3749999999990397e-02  8.5449218749991354e-02  7.6171874999992409e-02  6.5917968749993547e-02  5.4687499999994740e-02  4.2480468749996003e-02  2.9296874999997315e-02  1.5136718749998643e-02  0.0000000000000000e+00  </DataArray> 
</PointData> 
</Piece>
</UnstructuredGrid>
</VTKFile>