<?xml version="1.0"?>
<VTKFile type="UnstructuredGrid"  version="0.1"  >
<UnstructuredGrid>
<Piece  NumberOfPoints="425" NumberOfCells="768">
<Points>
<DataArray  type="Float64"  NumberOfComponents="3"  format="ascii">0 0 0  0.04166666666666666 0 0  0.08333333333333333 0 0  0.125 0 0  0.1666666666666667 0 0  0.2083333333333333 0 0  0.25 0 0  0.2916666666666667 0 0  0.3333333333333333 0 0  0.375 0 0  0.4166666666666667 0 0  0.4583333333333333 0 0  0.5 0 0  0.5416666666666666 0 0  0.5833333333333334 0 0  0.625 0 0  0.6666666666666666 0 0  0.7083333333333334 0 0  0.75 0 0  0.7916666666666666 0 0  0.8333333333333334 0 0  0.875 0 0  0.9166666666666666 0 0  0.9583333333333334 0 0  1 0 0  0 0.0625 0  0.04166666666666666 0.0625 0  0.08333333333333333 0.0625 0  0.125 0.0625 0  0.1666666666666667 0.0625 0  0.2083333333333333 0.0625 0  0.25 0.0625 0  0.2916666666666667 0.0625 0  0.3333333333333333 0.0625 0  0.375 0.0625 0  0.4166666666666667 0.0625 0  0.4583333333333333 0.0625 0  0.5 0.0625 0  0.5416666666666666 0.0625 0  0.5833333333333334 0.0625 0  0.625 0.0625 0  0.6666666666666666 0.0625 0  0.7083333333333334 0.0625 0  0.75 0.0625 0  0.7916666666666666 0.0625 0  0.8333333333333334 0.0625 0  0.875 0.0625 0  0.9166666666666666 0.0625 0  0.9583333333333334 0.0625 0  1 0.0625 0  0 0.125 0  0.04166666666666666 0.125 0  0.08333333333333333 0.125 0  0.125 0.125 0  0.1666666666666667 0.125 0  0.2083333333333333 0.125 0  0.25 0.125 0  0.2916666666666667 0.125 0  0.3333333333333333 0.125 0  0.375 0.125 0  0.4166666666666667 0.125 0  0.4583333333333333 0.125 0  0.5 0.125 0  0.5416666666666666 0.125 0  0.5833333333333334 0.125 0  0.625 0.125 0  0.6666666666666666 0.125 0  0.7083333333333334 0.125 0  0.75 0.125 0  0.7916666666666666 0.125 0  0.8333333333333334 0.125 0  0.875 0.125 0  0.9166666666666666 0.125 0  0.9583333333333334 0.125 0  1 0.125 0  0 0.1875 0  0.04166666666666666 0.1875 0  0.08333333333333333 0.1875 0  0.125 0.1875 0  0.1666666666666667 0.1875 0  0.2083333333333333 0.1875 0  0.25 0.1875 0  0.2916666666666667 0.1875 0  0.3333333333333333 0.1875 0  0.375 0.1875 0  0.4166666666666667 0.1875 0  0.4583333333333333 0.1875 0  0.5 0.1875 0  0.5416666666666666 0.1875 0  0.5833333333333334 0.1875 0  0.625 0.1875 0  0.6666666666666666 0.1875 0  0.7083333333333334 0.1875 0  0.75 0.1875 0  0.7916666666666666 0.1875 0  0.8333333333333334 0.1875 0  0.875 0.1875 0  0.9166666666666666 0.1875 0  0.9583333333333334 0.1875 0  1 0.1875 0  0 0.25 0  0.04166666666666666 0.25 0  0.08333333333333333 0.25 0  0.125 0.25 0  0.1666666666666667 0.25 0  0.2083333333333333 0.25 0  0.25 0.25 0  0.2916666666666667 0.25 0  0.3333333333333333 0.25 0  0.375 0.25 0  0.4166666666666667 0.25 0  0.4583333333333333 0.25 0  0.5 0.25 0  0.5416666666666666 0.25 0  0.5833333333333334 0.25 0  0.625 0.25 0  0.6666666666666666 0.25 0  0.7083333333333334 0.25 0  0.75 0.25 0  0.7916666666666666 0.25 0  0.8333333333333334 0.25 0  0.875 0.25 0  0.9166666666666666 0.25 0  0.9583333333333334 0.25 0  1 0.25 0  0 0.3125 0  0.04166666666666666 0.3125 0  0.08333333333333333 0.3125 0  0.125 0.3125 0  0.1666666666666667 0.3125 0  0.2083333333333333 0.3125 0  0.25 0.3125 0  0.2916666666666667 0.3125 0  0.3333333333333333 0.3125 0  0.375 0.3125 0  0.4166666666666667 0.3125 0  0.4583333333333333 0.3125 0  0.5 0.3125 0  0.5416666666666666 0.3125 0  0.5833333333333334 0.3125 0  0.625 0.3125 0  0.6666666666666666 0.3125 0  0.7083333333333334 0.3125 0  0.75 0.3125 0  0.7916666666666666 0.3125 0  0.8333333333333334 0.3125 0  0.875 0.3125 0  0.9166666666666666 0.3125 0  0.9583333333333334 0.3125 0  1 0.3125 0  0 0.375 0  0.04166666666666666 0.375 0  0.08333333333333333 0.375 0  0.125 0.375 0  0.1666666666666667 0.375 0  0.2083333333333333 0.375 0  0.25 0.375 0  0.2916666666666667 0.375 0  0.3333333333333333 0.375 0  0.375 0.375 0  0.4166666666666667 0.375 0  0.4583333333333333 0.375 0  0.5 0.375 0  0.5416666666666666 0.375 0  0.5833333333333334 0.375 0  0.625 0.375 0  0.6666666666666666 0.375 0  0.7083333333333334 0.375 0  0.75 0.375 0  0.7916666666666666 0.375 0  0.8333333333333334 0.375 0  0.875 0.375 0  0.9166666666666666 0.375 0  0.9583333333333334 0.375 0  1 0.375 0  0 0.4375 0  0.04166666666666666 0.4375 0  0.08333333333333333 0.4375 0  0.125 0.4375 0  0.1666666666666667 0.4375 0  0.2083333333333333 0.4375 0  0.25 0.4375 0  0.2916666666666667 0.4375 0  0.3333333333333333 0.4375 0  0.375 0.4375 0  0.4166666666666667 0.4375 0  0.4583333333333333 0.4375 0  0.5 0.4375 0  0.5416666666666666 0.4375 0  0.5833333333333334 0.4375 0  0.625 0.4375 0  0.6666666666666666 0.4375 0  0.7083333333333334 0.4375 0  0.75 0.4375 0  0.7916666666666666 0.4375 0  0.8333333333333334 0.4375 0  0.875 0.4375 0  0.9166666666666666 0.4375 0  0.9583333333333334 0.4375 0  1 0.4375 0  0 0.5 0  0.04166666666666666 0.5 0  0.08333333333333333 0.5 0  0.125 0.5 0  0.1666666666666667 0.5 0  0.2083333333333333 0.5 0  0.25 0.5 0  0.2916666666666667 0.5 0  0.3333333333333333 0.5 0  0.375 0.5 0  0.4166666666666667 0.5 0  0.4583333333333333 0.5 0  0.5 0.5 0  0.5416666666666666 0.5 0  0.5833333333333334 0.5 0  0.625 0.5 0  0.6666666666666666 0.5 0  0.7083333333333334 0.5 0  0.75 0.5 0  0.7916666666666666 0.5 0  0.8333333333333334 0.5 0  0.875 0.5 0  0.9166666666666666 0.5 0  0.9583333333333334 0.5 0  1 0.5 0  0 0.5625 0  0.04166666666666666 0.5625 0  0.08333333333333333 0.5625 0  0.125 0.5625 0  0.1666666666666667 0.5625 0  0.2083333333333333 0.5625 0  0.25 0.5625 0  0.2916666666666667 0.5625 0  0.3333333333333333 0.5625 0  0.375 0.5625 0  0.4166666666666667 0.5625 0  0.4583333333333333 0.5625 0  0.5 0.5625 0  0.5416666666666666 0.5625 0  0.5833333333333334 0.5625 0  0.625 0.5625 0  0.6666666666666666 0.5625 0  0.7083333333333334 0.5625 0  0.75 0.5625 0  0.7916666666666666 0.5625 0  0.8333333333333334 0.5625 0  0.875 0.5625 0  0.9166666666666666 0.5625 0  0.9583333333333334 0.5625 0  1 0.5625 0  0 0.625 0  0.04166666666666666 0.625 0  0.08333333333333333 0.625 0  0.125 0.625 0  0.1666666666666667 0.625 0  0.2083333333333333 0.625 0  0.25 0.625 0  0.2916666666666667 0.625 0  0.3333333333333333 0.625 0  0.375 0.625 0  0.4166666666666667 0.625 0  0.4583333333333333 0.625 0  0.5 0.625 0  0.5416666666666666 0.625 0  0.5833333333333334 0.625 0  0.625 0.625 0  0.6666666666666666 0.625 0  0.7083333333333334 0.625 0  0.75 0.625 0  0.7916666666666666 0.625 0  0.8333333333333334 0.625 0  0.875 0.625 0  0.9166666666666666 0.625 0  0.9583333333333334 0.625 0  1 0.625 0  0 0.6875 0  0.04166666666666666 0.6875 0  0.08333333333333333 0.6875 0  0.125 0.6875 0  0.1666666666666667 0.6875 0  0.2083333333333333 0.6875 0  0.25 0.6875 0  0.2916666666666667 0.6875 0  0.3333333333333333 0.6875 0  0.375 0.6875 0  0.4166666666666667 0.6875 0  0.4583333333333333 0.6875 0  0.5 0.6875 0  0.5416666666666666 0.6875 0  0.5833333333333334 0.6875 0  0.625 0.6875 0  0.6666666666666666 0.6875 0  0.7083333333333334 0.6875 0  0.75 0.6875 0  0.7916666666666666 0.6875 0  0.8333333333333334 0.6875 0  0.875 0.6875 0  0.9166666666666666 0.6875 0  0.9583333333333334 0.6875 0  1 0.6875 0  0 0.75 0  0.04166666666666666 0.75 0  0.08333333333333333 0.75 0  0.125 0.75 0  0.1666666666666667 0.75 0  0.2083333333333333 0.75 0  0.25 0.75 0  0.2916666666666667 0.75 0  0.3333333333333333 0.75 0  0.375 0.75 0  0.4166666666666667 0.75 0  0.4583333333333333 0.75 0  0.5 0.75 0  0.5416666666666666 0.75 0  0.5833333333333334 0.75 0  0.625 0.75 0  0.6666666666666666 0.75 0  0.7083333333333334 0.75 0  0.75 0.75 0  0.7916666666666666 0.75 0  0.8333333333333334 0.75 0  0.875 0.75 0  0.9166666666666666 0.75 0  0.9583333333333334 0.75 0  1 0.75 0  0 0.8125 0  0.04166666666666666 0.8125 0  0.08333333333333333 0.8125 0  0.125 0.8125 0  0.1666666666666667 0.8125 0  0.2083333333333333 0.8125 0  0.25 0.8125 0  0.2916666666666667 0.8125 0  0.3333333333333333 0.8125 0  0.375 0.8125 0  0.4166666666666667 0.8125 0  0.4583333333333333 0.8125 0  0.5 0.8125 0  0.5416666666666666 0.8125 0  0.5833333333333334 0.8125 0  0.625 0.8125 0  0.6666666666666666 0.8125 0  0.7083333333333334 0.8125 0  0.75 0.8125 0  0.7916666666666666 0.8125 0  0.8333333333333334 0.8125 0  0.875 0.8125 0  0.9166666666666666 0.8125 0  0.9583333333333334 0.8125 0  1 0.8125 0  0 0.875 0  0.04166666666666666 0.875 0  0.08333333333333333 0.875 0  0.125 0.875 0  0.1666666666666667 0.875 0  0.2083333333333333 0.875 0  0.25 0.875 0  0.2916666666666667 0.875 0  0.3333333333333333 0.875 0  0.375 0.875 0  0.4166666666666667 0.875 0  0.4583333333333333 0.875 0  0.5 0.875 0  0.5416666666666666 0.875 0  0.5833333333333334 0.875 0  0.625 0.875 0  0.6666666666666666 0.875 0  0.7083333333333334 0.875 0  0.75 0.875 0  0.7916666666666666 0.875 0  0.8333333333333334 0.875 0  0.875 0.875 0  0.9166666666666666 0.875 0  0.9583333333333334 0.875 0  1 0.875 0  0 0.9375 0  0.04166666666666666 0.9375 0  0.08333333333333333 0.9375 0  0.125 0.9375 0  0.1666666666666667 0.9375 0  0.2083333333333333 0.9375 0  0.25 0.9375 0  0.2916666666666667 0.9375 0  0.3333333333333333 0.9375 0  0.375 0.9375 0  0.4166666666666667 0.9375 0  0.4583333333333333 0.9375 0  0.5 0.9375 0  0.5416666666666666 0.9375 0  0.5833333333333334 0.9375 0  0.625 0.9375 0  0.6666666666666666 0.9375 0  0.7083333333333334 0.9375 0  0.75 0.9375 0  0.7916666666666666 0.9375 0  0.8333333333333334 0.9375 0  0.875 0.9375 0  0.9166666666666666 0.9375 0  0.9583333333333334 0.9375 0  1 0.9375 0  0 1 0  0.04166666666666666 1 0  0.08333333333333333 1 0  0.125 1 0  0.1666666666666667 1 0  0.2083333333333333 1 0  0.25 1 0  0.2916666666666667 1 0  0.3333333333333333 1 0  0.375 1 0  0.4166666666666667 1 0  0.4583333333333333 1 0  0.5 1 0  0.5416666666666666 1 0  0.5833333333333334 1 0  0.625 1 0  0.6666666666666666 1 0  0.7083333333333334 1 0  0.75 1 0  0.7916666666666666 1 0  0.8333333333333334 1 0  0.875 1 0  0.9166666666666666 1 0  0.9583333333333334 1 0  1 1 0  </DataArray>
</Points>
<Cells>
[...]
<PointData  Scalars="f_46"> 
<DataArray  type="Float64"  Name="f_46"  format="ascii">7.1847918413616096e-16  3.3493649053890774e-02  3.3493649053890802e-02  3.3493649053890850e-02  3.3493649053890795e-02  3.3493649053890788e-02  3.3493649053890816e-02  3.3493649053890774e-02  3.3493649053890844e-02  3.3493649053890802e-02  3.3493649053890774e-02  3.3493649053890823e-02  3.3493649053890795e-02  3.3493649053890823e-02  3.3493649053890788e-02  3.3493649053890788e-02  3.3493649053890864e-02  3.3493649053890823e-02  3.3493649053890802e-02  3.3493649053890809e-02  3.3493649053890816e-02  3.3493649053890795e-02  3.3493649053890857e-02  3.3493649053890684e-02  3.3493649053891336e-02  9.5382686124411681e-16  6.0556942922154564e-02  6.0556942922154765e-02  6.0556942922154813e-02  6.0556942922154841e-02  6.0556942922154883e-02  6.0556942922154786e-02  6.0556942922154827e-02  6.0556942922154772e-02  6.0556942922154848e-02  6.0556942922154765e-02  6.0556942922154841e-02  6.0556942922154709e-02  6.0556942922154765e-02  6.0556942922154786e-02  6.0556942922154883e-02  6.0556942922154737e-02  6.0556942922154695e-02  6.0556942922154813e-02  6.0556942922154799e-02  6.0556942922154744e-02  6.0556942922154827e-02  6.0556942922154827e-02  6.0556942922154668e-02  6.0556942922155070e-02  1.3431232038021909e-15  8.7620236790418415e-02  8.7620236790418762e-02  8.7620236790418665e-02  8.7620236790418637e-02  8.7620236790418721e-02  8.7620236790418568e-02  8.7620236790418887e-02  8.7620236790418665e-02  8.7620236790418721e-02  8.7620236790418818e-02  8.7620236790418665e-02  8.7620236790418762e-02  8.7620236790418735e-02  8.7620236790418721e-02  8.7620236790418762e-02  8.7620236790418665e-02  8.7620236790418873e-02  8.7620236790418665e-02  8.7620236790418735e-02  8.7620236790418721e-02  8.7620236790418790e-02  8.7620236790418832e-02  8.7620236790418554e-02  8.7620236790419220e-02  1.7811261080405919e-15  1.1468353065868227e-01  1.1468353065868273e-01  1.1468353065868291e-01  1.1468353065868254e-01  1.1468353065868310e-01  1.1468353065868273e-01  1.1468353065868275e-01  1.1468353065868266e-01  1.1468353065868289e-01  1.1468353065868259e-01  1.1468353065868266e-01  1.1468353065868243e-01  1.1468353065868275e-01  1.1468353065868268e-01  1.1468353065868277e-01  1.1468353065868293e-01  1.1468353065868253e-01  1.1468353065868252e-01  1.1468353065868292e-01  1.1468353065868261e-01  1.1468353065868282e-01  1.1468353065868275e-01  1.1468353065868235e-01  1.1468353065868345e-01  2.0713004878977633e-15  1.4174682452694606e-01  1.4174682452694670e-01  1.4174682452694681e-01  1.4174682452694673e-01  1.4174682452694676e-01  1.4174682452694673e-01  1.4174682452694656e-01  1.4174682452694679e-01  1.4174682452694670e-01  1.4174682452694667e-01  1.4174682452694667e-01  1.4174682452694670e-01  1.4174682452694670e-01  1.4174682452694681e-01  1.4174682452694665e-01  1.4174682452694662e-01  1.4174682452694645e-01  1.4174682452694679e-01  1.4174682452694665e-01  1.4174682452694679e-01  1.4174682452694681e-01  1.4174682452694676e-01  1.4174682452694656e-01  1.4174682452694765e-01  2.4085551261765335e-15  1.6881011839521007e-01  1.6881011839521073e-01  1.6881011839521082e-01  1.6881011839521087e-01  1.6881011839521057e-01  1.6881011839521082e-01  1.6881011839521098e-01  1.6881011839521071e-01  1.6881011839521065e-01  1.6881011839521073e-01  1.6881011839521082e-01  1.6881011839521076e-01  1.6881011839521068e-01  1.6881011839521076e-01  1.6881011839521085e-01  1.6881011839521073e-01  1.6881011839521073e-01  1.6881011839521065e-01  1.6881011839521076e-01  1.6881011839521062e-01  1.6881011839521054e-01  1.6881011839521073e-01  1.6881011839521051e-01  1.6881011839521168e-01  2.7606497816911991e-15  1.9587341226347388e-01  1.9587341226347468e-01  1.9587341226347477e-01  1.9587341226347485e-01  1.9587341226347479e-01  1.9587341226347477e-01  1.9587341226347452e-01  1.9587341226347477e-01  1.9587341226347482e-01  1.9587341226347485e-01  1.9587341226347452e-01  1.9587341226347496e-01  1.9587341226347468e-01  1.9587341226347479e-01  1.9587341226347435e-01  1.9587341226347457e-01  1.9587341226347485e-01  1.9587341226347471e-01  1.9587341226347463e-01  1.9587341226347468e-01  1.9587341226347463e-01  1.9587341226347454e-01  1.9587341226347468e-01  1.9587341226347557e-01  3.2490972776370046e-15  2.2293670613173744e-01  2.2293670613173860e-01  2.2293670613173880e-01  2.2293670613173830e-01  2.2293670613173844e-01  2.2293670613173905e-01  2.2293670613173908e-01  2.2293670613173824e-01  2.2293670613173841e-01  2.2293670613173847e-01  2.2293670613173885e-01  2.2293670613173880e-01  2.2293670613173874e-01  2.2293670613173835e-01  2.2293670613173880e-01  2.2293670613173858e-01  2.2293670613173813e-01  2.2293670613173844e-01  2.2293670613173841e-01  2.2293670613173872e-01  2.2293670613173822e-01  2.2293670613173844e-01  2.2293670613173852e-01  2.2293670613174027e-01  3.5193202518879261e-15  2.5000000000000167e-01  2.5000000000000305e-01  2.5000000000000283e-01  2.5000000000000300e-01  2.5000000000000300e-01  2.5000000000000305e-01  2.5000000000000300e-01  2.5000000000000300e-01  2.5000000000000278e-01  2.5000000000000311e-01  2.5000000000000283e-01  2.5000000000000316e-01  2.5000000000000239e-01  2.5000000000000272e-01  2.5000000000000289e-01  2.5000000000000261e-01  2.5000000000000244e-01  2.5000000000000300e-01  2.5000000000000233e-01  2.5000000000000272e-01  2.5000000000000266e-01  2.5000000000000283e-01  2.5000000000000228e-01  2.5000000000000439e-01  3.8071759286828259e-15  2.7706329386826561e-01  2.7706329386826700e-01  2.7706329386826717e-01  2.7706329386826645e-01  2.7706329386826650e-01  2.7706329386826650e-01  2.7706329386826661e-01  2.7706329386826672e-01  2.7706329386826667e-01  2.7706329386826667e-01  2.7706329386826656e-01  2.7706329386826667e-01  2.7706329386826672e-01  2.7706329386826645e-01  2.7706329386826700e-01  2.7706329386826678e-01  2.7706329386826645e-01  2.7706329386826695e-01  2.7706329386826667e-01  2.7706329386826661e-01  2.7706329386826706e-01  2.7706329386826667e-01  2.7706329386826611e-01  2.7706329386826861e-01  4.1751270409700916e-15  3.0412658773652940e-01  3.0412658773653062e-01  3.0412658773653012e-01  3.0412658773653017e-01  3.0412658773653051e-01  3.0412658773653028e-01  3.0412658773653078e-01  3.0412658773653078e-01  3.0412658773653023e-01  3.0412658773653073e-01  3.0412658773653040e-01  3.0412658773653062e-01  3.0412658773653017e-01  3.0412658773653090e-01  3.0412658773653040e-01  3.0412658773653006e-01  3.0412658773653045e-01  3.0412658773653095e-01  3.0412658773653017e-01  3.0412658773653090e-01  3.0412658773653051e-01  3.0412658773653034e-01  3.0412658773653034e-01  3.0412658773653212e-01  4.6550083956299900e-15  3.3118988160479290e-01  3.3118988160479507e-01  3.3118988160479451e-01  3.3118988160479446e-01  3.3118988160479496e-01  3.3118988160479473e-01  3.3118988160479462e-01  3.3118988160479446e-01  3.3118988160479435e-01  3.3118988160479473e-01  3.3118988160479401e-01  3.3118988160479490e-01  3.3118988160479435e-01  3.3118988160479423e-01  3.3118988160479501e-01  3.3118988160479457e-01  3.3118988160479418e-01  3.3118988160479501e-01  3.3118988160479379e-01  3.3118988160479446e-01  3.3118988160479451e-01  3.3118988160479418e-01  3.3118988160479446e-01  3.3118988160479695e-01  4.7939354309161894e-15  3.5825317547305630e-01  3.5825317547305863e-01  3.5825317547305863e-01  3.5825317547305913e-01  3.5825317547305846e-01  3.5825317547305902e-01  3.5825317547305890e-01  3.5825317547305885e-01  3.5825317547305824e-01  3.5825317547305885e-01  3.5825317547305807e-01  3.5825317547305868e-01  3.5825317547305841e-01  3.5825317547305857e-01  3.5825317547305785e-01  3.5825317547305890e-01  3.5825317547305852e-01  3.5825317547305852e-01  3.5825317547305846e-01  3.5825317547305841e-01  3.5825317547305852e-01  3.5825317547305929e-01  3.5825317547305829e-01  3.5825317547306090e-01  5.1301736296582548e-15  3.8531646934132169e-01  3.8531646934132313e-01  3.8531646934132330e-01  3.8531646934132224e-01  3.8531646934132258e-01  3.8531646934132263e-01  3.8531646934132313e-01  3.8531646934132241e-01  3.8531646934132263e-01  3.8531646934132308e-01  3.8531646934132224e-01  3.8531646934132296e-01  3.8531646934132374e-01  3.8531646934132174e-01  3.8531646934132313e-01  3.8531646934132274e-01  3.8531646934132230e-01  3.8531646934132269e-01  3.8531646934132219e-01  3.8531646934132263e-01  3.8531646934132252e-01  3.8531646934132252e-01  3.8531646934132235e-01  3.8531646934132541e-01  5.6931279514544235e-15  4.1237976320958469e-01  4.1237976320958669e-01  4.1237976320958664e-01  4.1237976320958647e-01  4.1237976320958691e-01  4.1237976320958630e-01  4.1237976320958664e-01  4.1237976320958680e-01  4.1237976320958691e-01  4.1237976320958675e-01  4.1237976320958686e-01  4.1237976320958675e-01  4.1237976320958669e-01  4.1237976320958547e-01  4.1237976320958664e-01  4.1237976320958653e-01  4.1237976320958641e-01  4.1237976320958691e-01  4.1237976320958647e-01  4.1237976320958603e-01  4.1237976320958658e-01  4.1237976320958664e-01  4.1237976320958580e-01  4.1237976320958947e-01  5.1846547888256506e-15  4.3944305707784764e-01  4.3944305707785031e-01  4.3944305707785075e-01  4.3944305707785025e-01  4.3944305707784986e-01  4.3944305707784953e-01  4.3944305707785086e-01  4.3944305707785031e-01  4.3944305707784997e-01  4.3944305707784992e-01  4.3944305707785036e-01  4.3944305707785042e-01  4.3944305707785025e-01  4.3944305707785003e-01  4.3944305707785103e-01  4.3944305707785059e-01  4.3944305707784997e-01  4.3944305707785053e-01  4.3944305707785070e-01  4.3944305707785070e-01  4.3944305707785036e-01  4.3944305707785031e-01  4.3944305707784936e-01  4.3944305707785392e-01  5.4838945884316420e-15  4.6650635094611431e-01  4.6650635094611748e-01  4.6650635094611731e-01  4.6650635094611742e-01  4.6650635094611703e-01  4.6650635094611770e-01  4.6650635094611742e-01  4.6650635094611753e-01  4.6650635094611764e-01  4.6650635094611714e-01  4.6650635094611831e-01  4.6650635094611742e-01  4.6650635094611725e-01  4.6650635094611792e-01  4.6650635094611709e-01  4.6650635094611737e-01  4.6650635094611759e-01  4.6650635094611742e-01  4.6650635094611786e-01  4.6650635094611786e-01  4.6650635094611731e-01  4.6650635094611737e-01  4.6650635094611803e-01  4.6650635094611698e-01  </DataArray> 
</PointData> 
</Piece>
</UnstructuredGrid>
</VTKFile>